TITLE ="GRID showing" 
VARIABLES = "X" , "Y" , "Z" , "phase"
ZONE N=60, E=24, F=FEPOINT, ET=BRICK
0.0	0.0	0.0 0
1.0	0.0	0.0 1
2.0	0.0	0.0 0
3.0	0.0	0.0 1
4.0	0.0	0.0 0
0.0	1.0	0.0 0
1.0	1.0	0.0 1
2.0	1.0	0.0 0
3.0	1.0	0.0 1
4.0	1.0	0.0 0
0.0	2.0	0.0 0
1.0	2.0	0.0 1
2.0	2.0	0.0 0
3.0	2.0	0.0 1
4.0	2.0	0.0 0
0.0	3.0	0.0 0
1.0	3.0	0.0 1
2.0	3.0	0.0 0
3.0	3.0	0.0 1
4.0	3.0	0.0 0
0.0	0.0	1.0 0
1.0	0.0	1.0 1
2.0	0.0	1.0 0
3.0	0.0	1.0 1
4.0	0.0	1.0 0
0.0	1.0	1.0 0
1.0	1.0	1.0 1
2.0	1.0	1.0 0
3.0	1.0	1.0 1
4.0	1.0	1.0 0
0.0	2.0	1.0 0
1.0	2.0	1.0 1
2.0	2.0	1.0 0
3.0	2.0	1.0 1
4.0	2.0	1.0 0
0.0	3.0	1.0 0
1.0	3.0	1.0 1
2.0	3.0	1.0 0
3.0	3.0	1.0 1
4.0	3.0	1.0 0
0.0	0.0	2.0 0
1.0	0.0	2.0 1
2.0	0.0	2.0 0
3.0	0.0	2.0 1
4.0	0.0	2.0 0
0.0	1.0	2.0 0
1.0	1.0	2.0 1
2.0	1.0	2.0 0
3.0	1.0	2.0 1
4.0	1.0	2.0 0
0.0	2.0	2.0 0
1.0	2.0	2.0 1
2.0	2.0	2.0 0
3.0	2.0	2.0 1
4.0	2.0	2.0 0
0.0	3.0	2.0 0
1.0	3.0	2.0 1
2.0	3.0	2.0 0
3.0	3.0	2.0 1
4.0	3.0	2.0 0
1	2	7	6	21	22	27	26
2	3	8	7	22	23	28	27
3	4	9	8	23	24	29	28
4	5	10	9	24	25	30	29
6	7	12	11	26	27	32	31
7	8	13	12	27	28	33	32
8	9	14	13	28	29	34	33
9	10	15	14	29	30	35	34
11	12	17	16	31	32	37	36
12	13	18	17	32	33	38	37
13	14	19	18	33	34	39	38
14	15	20	19	34	35	40	39
21	22	27	26	41	42	47	46
22	23	28	27	42	43	48	47
23	24	29	28	43	44	49	48
24	25	30	29	44	45	50	49
26	27	32	31	46	47	52	51
27	28	33	32	47	48	53	52
28	29	34	33	48	49	54	53
29	30	35	34	49	50	55	54
31	32	37	36	51	52	57	56
32	33	38	37	52	53	58	57
33	34	39	38	53	54	59	58
34	35	40	39	54	55	60	59
