# vtk DataFile Version 2.0
step 0 time 0.000000e+00 normalized time 0.000000e+00, generated by py.test
ASCII
DATASET UNSTRUCTURED_GRID

POINTS 25 float
-2.000000e+00 -2.000000e+00 0.000000e+00
-2.000000e+00 -1.000000e+00 0.000000e+00
-2.000000e+00 0.000000e+00 0.000000e+00
-2.000000e+00 1.000000e+00 0.000000e+00
-2.000000e+00 2.000000e+00 0.000000e+00
-1.000000e+00 -2.000000e+00 0.000000e+00
-1.000000e+00 -1.000000e+00 0.000000e+00
-1.000000e+00 0.000000e+00 0.000000e+00
-1.000000e+00 1.000000e+00 0.000000e+00
-1.000000e+00 2.000000e+00 0.000000e+00
0.000000e+00 -2.000000e+00 0.000000e+00
0.000000e+00 -1.000000e+00 0.000000e+00
0.000000e+00 0.000000e+00 0.000000e+00
0.000000e+00 1.000000e+00 0.000000e+00
0.000000e+00 2.000000e+00 0.000000e+00
1.000000e+00 -2.000000e+00 0.000000e+00
1.000000e+00 -1.000000e+00 0.000000e+00
1.000000e+00 0.000000e+00 0.000000e+00
1.000000e+00 1.000000e+00 0.000000e+00
1.000000e+00 2.000000e+00 0.000000e+00
2.000000e+00 -2.000000e+00 0.000000e+00
2.000000e+00 -1.000000e+00 0.000000e+00
2.000000e+00 0.000000e+00 0.000000e+00
2.000000e+00 1.000000e+00 0.000000e+00
2.000000e+00 2.000000e+00 0.000000e+00

CELLS 16 80
4 0 5 6 1 
4 1 6 7 2 
4 2 7 8 3 
4 3 8 9 4 
4 5 10 11 6 
4 6 11 12 7 
4 7 12 13 8 
4 8 13 14 9 
4 10 15 16 11 
4 11 16 17 12 
4 12 17 18 13 
4 13 18 19 14 
4 15 20 21 16 
4 16 21 22 17 
4 17 22 23 18 
4 18 23 24 19 

CELL_TYPES 16
9
9
9
9
9
9
9
9
9
9
9
9
9
9
9
9

POINT_DATA 25

SCALARS node_groups int 1
LOOKUP_TABLE default
0
0
0
0
0
0
0
0
0
0
0
0
0
0
0
0
0
0
0
0
0
0
0
0
0

VECTORS u float
0.000000e+00 -9.629358e-03 0.000000e+00
-2.088252e-02 -2.577106e-02 0.000000e+00
-2.525717e-02 -4.169916e-02 0.000000e+00
-1.705403e-02 -3.823242e-02 0.000000e+00
0.000000e+00 -9.629358e-03 0.000000e+00
1.725227e-01 3.359540e-02 0.000000e+00
1.007655e-01 1.080073e-02 0.000000e+00
3.526568e-03 -2.598330e-02 0.000000e+00
1.483704e-02 -3.980438e-02 0.000000e+00
1.725227e-01 3.359540e-02 0.000000e+00
1.941214e-01 4.096427e-02 0.000000e+00
2.306120e-01 3.339257e-02 0.000000e+00
2.850249e-01 7.324744e-03 0.000000e+00
1.822101e-01 -1.960200e-02 0.000000e+00
1.941214e-01 4.096427e-02 0.000000e+00
2.215260e-01 -2.086119e-03 0.000000e+00
2.884237e-01 -1.314101e-02 0.000000e+00
3.463682e-01 -2.767242e-02 0.000000e+00
3.542281e-01 -3.316916e-02 0.000000e+00
2.215260e-01 -2.086119e-03 0.000000e+00
4.000000e-01 -9.629358e-03 0.000000e+00
3.791175e-01 -2.577106e-02 0.000000e+00
3.747428e-01 -4.169916e-02 0.000000e+00
3.829460e-01 -3.823242e-02 0.000000e+00
4.000000e-01 -9.629358e-03 0.000000e+00

CELL_DATA 16
SCALARS mat_id int 1
LOOKUP_TABLE default
0
0
0
0
0
0
0
0
0
0
0
0
0
0
0
0
