# vtk DataFile Version 2.0
step 0 time 0.000000e+00 normalized time 0.000000e+00, generated by py.test
ASCII
DATASET UNSTRUCTURED_GRID

POINTS 484 float
-1.050000e+01 -1.050000e+01 0.000000e+00
-1.050000e+01 -9.500000e+00 0.000000e+00
-1.050000e+01 -8.500000e+00 0.000000e+00
-1.050000e+01 -7.500000e+00 0.000000e+00
-1.050000e+01 -6.500000e+00 0.000000e+00
-1.050000e+01 -5.500000e+00 0.000000e+00
-1.050000e+01 -4.500000e+00 0.000000e+00
-1.050000e+01 -3.500000e+00 0.000000e+00
-1.050000e+01 -2.500000e+00 0.000000e+00
-1.050000e+01 -1.500000e+00 0.000000e+00
-1.050000e+01 -5.000000e-01 0.000000e+00
-1.050000e+01 5.000000e-01 0.000000e+00
-1.050000e+01 1.500000e+00 0.000000e+00
-1.050000e+01 2.500000e+00 0.000000e+00
-1.050000e+01 3.500000e+00 0.000000e+00
-1.050000e+01 4.500000e+00 0.000000e+00
-1.050000e+01 5.500000e+00 0.000000e+00
-1.050000e+01 6.500000e+00 0.000000e+00
-1.050000e+01 7.500000e+00 0.000000e+00
-1.050000e+01 8.500000e+00 0.000000e+00
-1.050000e+01 9.500000e+00 0.000000e+00
-1.050000e+01 1.050000e+01 0.000000e+00
-9.500000e+00 -1.050000e+01 0.000000e+00
-9.500000e+00 -9.500000e+00 0.000000e+00
-9.500000e+00 -8.500000e+00 0.000000e+00
-9.500000e+00 -7.500000e+00 0.000000e+00
-9.500000e+00 -6.500000e+00 0.000000e+00
-9.500000e+00 -5.500000e+00 0.000000e+00
-9.500000e+00 -4.500000e+00 0.000000e+00
-9.500000e+00 -3.500000e+00 0.000000e+00
-9.500000e+00 -2.500000e+00 0.000000e+00
-9.500000e+00 -1.500000e+00 0.000000e+00
-9.500000e+00 -5.000000e-01 0.000000e+00
-9.500000e+00 5.000000e-01 0.000000e+00
-9.500000e+00 1.500000e+00 0.000000e+00
-9.500000e+00 2.500000e+00 0.000000e+00
-9.500000e+00 3.500000e+00 0.000000e+00
-9.500000e+00 4.500000e+00 0.000000e+00
-9.500000e+00 5.500000e+00 0.000000e+00
-9.500000e+00 6.500000e+00 0.000000e+00
-9.500000e+00 7.500000e+00 0.000000e+00
-9.500000e+00 8.500000e+00 0.000000e+00
-9.500000e+00 9.500000e+00 0.000000e+00
-9.500000e+00 1.050000e+01 0.000000e+00
-8.500000e+00 -1.050000e+01 0.000000e+00
-8.500000e+00 -9.500000e+00 0.000000e+00
-8.500000e+00 -8.500000e+00 0.000000e+00
-8.500000e+00 -7.500000e+00 0.000000e+00
-8.500000e+00 -6.500000e+00 0.000000e+00
-8.500000e+00 -5.500000e+00 0.000000e+00
-8.500000e+00 -4.500000e+00 0.000000e+00
-8.500000e+00 -3.500000e+00 0.000000e+00
-8.500000e+00 -2.500000e+00 0.000000e+00
-8.500000e+00 -1.500000e+00 0.000000e+00
-8.500000e+00 -5.000000e-01 0.000000e+00
-8.500000e+00 5.000000e-01 0.000000e+00
-8.500000e+00 1.500000e+00 0.000000e+00
-8.500000e+00 2.500000e+00 0.000000e+00
-8.500000e+00 3.500000e+00 0.000000e+00
-8.500000e+00 4.500000e+00 0.000000e+00
-8.500000e+00 5.500000e+00 0.000000e+00
-8.500000e+00 6.500000e+00 0.000000e+00
-8.500000e+00 7.500000e+00 0.000000e+00
-8.500000e+00 8.500000e+00 0.000000e+00
-8.500000e+00 9.500000e+00 0.000000e+00
-8.500000e+00 1.050000e+01 0.000000e+00
-7.500000e+00 -1.050000e+01 0.000000e+00
-7.500000e+00 -9.500000e+00 0.000000e+00
-7.500000e+00 -8.500000e+00 0.000000e+00
-7.500000e+00 -7.500000e+00 0.000000e+00
-7.500000e+00 -6.500000e+00 0.000000e+00
-7.500000e+00 -5.500000e+00 0.000000e+00
-7.500000e+00 -4.500000e+00 0.000000e+00
-7.500000e+00 -3.500000e+00 0.000000e+00
-7.500000e+00 -2.500000e+00 0.000000e+00
-7.500000e+00 -1.500000e+00 0.000000e+00
-7.500000e+00 -5.000000e-01 0.000000e+00
-7.500000e+00 5.000000e-01 0.000000e+00
-7.500000e+00 1.500000e+00 0.000000e+00
-7.500000e+00 2.500000e+00 0.000000e+00
-7.500000e+00 3.500000e+00 0.000000e+00
-7.500000e+00 4.500000e+00 0.000000e+00
-7.500000e+00 5.500000e+00 0.000000e+00
-7.500000e+00 6.500000e+00 0.000000e+00
-7.500000e+00 7.500000e+00 0.000000e+00
-7.500000e+00 8.500000e+00 0.000000e+00
-7.500000e+00 9.500000e+00 0.000000e+00
-7.500000e+00 1.050000e+01 0.000000e+00
-6.500000e+00 -1.050000e+01 0.000000e+00
-6.500000e+00 -9.500000e+00 0.000000e+00
-6.500000e+00 -8.500000e+00 0.000000e+00
-6.500000e+00 -7.500000e+00 0.000000e+00
-6.500000e+00 -6.500000e+00 0.000000e+00
-6.500000e+00 -5.500000e+00 0.000000e+00
-6.500000e+00 -4.500000e+00 0.000000e+00
-6.500000e+00 -3.500000e+00 0.000000e+00
-6.500000e+00 -2.500000e+00 0.000000e+00
-6.500000e+00 -1.500000e+00 0.000000e+00
-6.500000e+00 -5.000000e-01 0.000000e+00
-6.500000e+00 5.000000e-01 0.000000e+00
-6.500000e+00 1.500000e+00 0.000000e+00
-6.500000e+00 2.500000e+00 0.000000e+00
-6.500000e+00 3.500000e+00 0.000000e+00
-6.500000e+00 4.500000e+00 0.000000e+00
-6.500000e+00 5.500000e+00 0.000000e+00
-6.500000e+00 6.500000e+00 0.000000e+00
-6.500000e+00 7.500000e+00 0.000000e+00
-6.500000e+00 8.500000e+00 0.000000e+00
-6.500000e+00 9.500000e+00 0.000000e+00
-6.500000e+00 1.050000e+01 0.000000e+00
-5.500000e+00 -1.050000e+01 0.000000e+00
-5.500000e+00 -9.500000e+00 0.000000e+00
-5.500000e+00 -8.500000e+00 0.000000e+00
-5.500000e+00 -7.500000e+00 0.000000e+00
-5.500000e+00 -6.500000e+00 0.000000e+00
-5.500000e+00 -5.500000e+00 0.000000e+00
-5.500000e+00 -4.500000e+00 0.000000e+00
-5.500000e+00 -3.500000e+00 0.000000e+00
-5.500000e+00 -2.500000e+00 0.000000e+00
-5.500000e+00 -1.500000e+00 0.000000e+00
-5.500000e+00 -5.000000e-01 0.000000e+00
-5.500000e+00 5.000000e-01 0.000000e+00
-5.500000e+00 1.500000e+00 0.000000e+00
-5.500000e+00 2.500000e+00 0.000000e+00
-5.500000e+00 3.500000e+00 0.000000e+00
-5.500000e+00 4.500000e+00 0.000000e+00
-5.500000e+00 5.500000e+00 0.000000e+00
-5.500000e+00 6.500000e+00 0.000000e+00
-5.500000e+00 7.500000e+00 0.000000e+00
-5.500000e+00 8.500000e+00 0.000000e+00
-5.500000e+00 9.500000e+00 0.000000e+00
-5.500000e+00 1.050000e+01 0.000000e+00
-4.500000e+00 -1.050000e+01 0.000000e+00
-4.500000e+00 -9.500000e+00 0.000000e+00
-4.500000e+00 -8.500000e+00 0.000000e+00
-4.500000e+00 -7.500000e+00 0.000000e+00
-4.500000e+00 -6.500000e+00 0.000000e+00
-4.500000e+00 -5.500000e+00 0.000000e+00
-4.500000e+00 -4.500000e+00 0.000000e+00
-4.500000e+00 -3.500000e+00 0.000000e+00
-4.500000e+00 -2.500000e+00 0.000000e+00
-4.500000e+00 -1.500000e+00 0.000000e+00
-4.500000e+00 -5.000000e-01 0.000000e+00
-4.500000e+00 5.000000e-01 0.000000e+00
-4.500000e+00 1.500000e+00 0.000000e+00
-4.500000e+00 2.500000e+00 0.000000e+00
-4.500000e+00 3.500000e+00 0.000000e+00
-4.500000e+00 4.500000e+00 0.000000e+00
-4.500000e+00 5.500000e+00 0.000000e+00
-4.500000e+00 6.500000e+00 0.000000e+00
-4.500000e+00 7.500000e+00 0.000000e+00
-4.500000e+00 8.500000e+00 0.000000e+00
-4.500000e+00 9.500000e+00 0.000000e+00
-4.500000e+00 1.050000e+01 0.000000e+00
-3.500000e+00 -1.050000e+01 0.000000e+00
-3.500000e+00 -9.500000e+00 0.000000e+00
-3.500000e+00 -8.500000e+00 0.000000e+00
-3.500000e+00 -7.500000e+00 0.000000e+00
-3.500000e+00 -6.500000e+00 0.000000e+00
-3.500000e+00 -5.500000e+00 0.000000e+00
-3.500000e+00 -4.500000e+00 0.000000e+00
-3.500000e+00 -3.500000e+00 0.000000e+00
-3.500000e+00 -2.500000e+00 0.000000e+00
-3.500000e+00 -1.500000e+00 0.000000e+00
-3.500000e+00 -5.000000e-01 0.000000e+00
-3.500000e+00 5.000000e-01 0.000000e+00
-3.500000e+00 1.500000e+00 0.000000e+00
-3.500000e+00 2.500000e+00 0.000000e+00
-3.500000e+00 3.500000e+00 0.000000e+00
-3.500000e+00 4.500000e+00 0.000000e+00
-3.500000e+00 5.500000e+00 0.000000e+00
-3.500000e+00 6.500000e+00 0.000000e+00
-3.500000e+00 7.500000e+00 0.000000e+00
-3.500000e+00 8.500000e+00 0.000000e+00
-3.500000e+00 9.500000e+00 0.000000e+00
-3.500000e+00 1.050000e+01 0.000000e+00
-2.500000e+00 -1.050000e+01 0.000000e+00
-2.500000e+00 -9.500000e+00 0.000000e+00
-2.500000e+00 -8.500000e+00 0.000000e+00
-2.500000e+00 -7.500000e+00 0.000000e+00
-2.500000e+00 -6.500000e+00 0.000000e+00
-2.500000e+00 -5.500000e+00 0.000000e+00
-2.500000e+00 -4.500000e+00 0.000000e+00
-2.500000e+00 -3.500000e+00 0.000000e+00
-2.500000e+00 -2.500000e+00 0.000000e+00
-2.500000e+00 -1.500000e+00 0.000000e+00
-2.500000e+00 -5.000000e-01 0.000000e+00
-2.500000e+00 5.000000e-01 0.000000e+00
-2.500000e+00 1.500000e+00 0.000000e+00
-2.500000e+00 2.500000e+00 0.000000e+00
-2.500000e+00 3.500000e+00 0.000000e+00
-2.500000e+00 4.500000e+00 0.000000e+00
-2.500000e+00 5.500000e+00 0.000000e+00
-2.500000e+00 6.500000e+00 0.000000e+00
-2.500000e+00 7.500000e+00 0.000000e+00
-2.500000e+00 8.500000e+00 0.000000e+00
-2.500000e+00 9.500000e+00 0.000000e+00
-2.500000e+00 1.050000e+01 0.000000e+00
-1.500000e+00 -1.050000e+01 0.000000e+00
-1.500000e+00 -9.500000e+00 0.000000e+00
-1.500000e+00 -8.500000e+00 0.000000e+00
-1.500000e+00 -7.500000e+00 0.000000e+00
-1.500000e+00 -6.500000e+00 0.000000e+00
-1.500000e+00 -5.500000e+00 0.000000e+00
-1.500000e+00 -4.500000e+00 0.000000e+00
-1.500000e+00 -3.500000e+00 0.000000e+00
-1.500000e+00 -2.500000e+00 0.000000e+00
-1.500000e+00 -1.500000e+00 0.000000e+00
-1.500000e+00 -5.000000e-01 0.000000e+00
-1.500000e+00 5.000000e-01 0.000000e+00
-1.500000e+00 1.500000e+00 0.000000e+00
-1.500000e+00 2.500000e+00 0.000000e+00
-1.500000e+00 3.500000e+00 0.000000e+00
-1.500000e+00 4.500000e+00 0.000000e+00
-1.500000e+00 5.500000e+00 0.000000e+00
-1.500000e+00 6.500000e+00 0.000000e+00
-1.500000e+00 7.500000e+00 0.000000e+00
-1.500000e+00 8.500000e+00 0.000000e+00
-1.500000e+00 9.500000e+00 0.000000e+00
-1.500000e+00 1.050000e+01 0.000000e+00
-5.000000e-01 -1.050000e+01 0.000000e+00
-5.000000e-01 -9.500000e+00 0.000000e+00
-5.000000e-01 -8.500000e+00 0.000000e+00
-5.000000e-01 -7.500000e+00 0.000000e+00
-5.000000e-01 -6.500000e+00 0.000000e+00
-5.000000e-01 -5.500000e+00 0.000000e+00
-5.000000e-01 -4.500000e+00 0.000000e+00
-5.000000e-01 -3.500000e+00 0.000000e+00
-5.000000e-01 -2.500000e+00 0.000000e+00
-5.000000e-01 -1.500000e+00 0.000000e+00
-5.000000e-01 -5.000000e-01 0.000000e+00
-5.000000e-01 5.000000e-01 0.000000e+00
-5.000000e-01 1.500000e+00 0.000000e+00
-5.000000e-01 2.500000e+00 0.000000e+00
-5.000000e-01 3.500000e+00 0.000000e+00
-5.000000e-01 4.500000e+00 0.000000e+00
-5.000000e-01 5.500000e+00 0.000000e+00
-5.000000e-01 6.500000e+00 0.000000e+00
-5.000000e-01 7.500000e+00 0.000000e+00
-5.000000e-01 8.500000e+00 0.000000e+00
-5.000000e-01 9.500000e+00 0.000000e+00
-5.000000e-01 1.050000e+01 0.000000e+00
5.000000e-01 -1.050000e+01 0.000000e+00
[...]
POINT_DATA 484

SCALARS node_groups int 1
LOOKUP_TABLE default
0
0
0
0
0
0
0
0
0
0
0
0
0
0
0
0
0
0
0
0
0
0
0
0
0
0
0
0
0
0
0
0
0
0
0
0
0
0
0
0
0
0
0
0
0
0
0
0
0
0
0
0
0
0
0
0
0
0
0
0
0
0
0
0
0
0
0
0
0
0
0
0
0
0
0
0
0
0
0
0
0
0
0
0
0
0
0
0
0
0
0
0
0
0
0
0
0
0
0
0
0
0
0
0
0
0
0
0
0
0
0
0
0
0
0
0
0
0
0
0
0
0
0
0
0
0
0
0
0
0
0
0
0
0
0
0
0
0
0
0
0
0
0
0
0
0
0
0
0
0
0
0
0
0
0
0
0
0
0
0
0
0
0
0
0
0
0
0
0
0
0
0
0
0
0
0
0
0
0
0
0
0
0
0
0
0
0
0
0
0
0
0
0
0
0
0
0
0
0
0
0
0
0
0
0
0
0
0
0
0
0
0
0
0
0
0
0
0
0
0
0
0
0
0
0
0
0
0
0
0
0
0
0
0
0
0
0
0
0
0
0
0
0
0
0
0
0
0
0
0
0
0
0
0
0
0
0
0
0
0
0
0
0
0
0
0
0
0
0
0
0
0
0
0
0
0
0
0
0
0
0
0
0
0
0
0
0
0
0
0
0
0
0
0
0
0
0
0
0
0
0
0
0
0
0
0
0
0
0
0
0
0
0
0
0
0
0
0
0
0
0
0
0
0
0
0
0
0
0
0
0
0
0
0
0
0
0
0
0
0
0
0
0
0
0
0
0
0
0
0
0
0
0
0
0
0
0
0
0
0
0
0
0
0
0
0
0
0
0
0
0
0
0
0
0
0
0
0
0
0
0
0
0
0
0
0
0
0
0
0
0
0
0
0
0
0
0
0
0
0
0
0
0
0
0
0
0
0
0
0
0
0
0
0
0
0
0
0
0
0
0
0
0
0
0
0
0
0
0
0
0
0
0
0
0
0
0
0
0
0
0
0
0
0
0
0
0
0
0
0
0
0
0
0
0
0
0
0
0
0
0
0
0
0
0
0
0
0
0
0
0
0
0
0
0
0
0
0
0
0
0
0
0
0

VECTORS u float
0.000000e+00 1.394161e-01 0.000000e+00
1.321209e-14 1.394101e-01 0.000000e+00
1.624742e-14 1.394044e-01 0.000000e+00
1.794051e-14 1.393993e-01 0.000000e+00
1.905073e-14 1.393952e-01 0.000000e+00
2.026504e-14 1.393925e-01 0.000000e+00
2.075076e-14 1.393918e-01 0.000000e+00
2.116363e-14 1.393934e-01 0.000000e+00
2.154180e-14 1.393974e-01 0.000000e+00
2.179854e-14 1.394038e-01 0.000000e+00
2.207609e-14 1.394118e-01 0.000000e+00
2.171527e-14 1.394204e-01 0.000000e+00
2.134751e-14 1.394284e-01 0.000000e+00
2.125036e-14 1.394348e-01 0.000000e+00
2.091036e-14 1.394388e-01 0.000000e+00
2.038647e-14 1.394404e-01 0.000000e+00
1.982442e-14 1.394397e-01 0.000000e+00
1.882175e-14 1.394370e-01 0.000000e+00
1.735070e-14 1.394329e-01 0.000000e+00
1.587966e-14 1.394278e-01 0.000000e+00
1.276063e-14 1.394221e-01 0.000000e+00
0.000000e+00 1.394161e-01 0.000000e+00
1.000121e-02 1.394161e-01 0.000000e+00
1.000102e-02 1.394101e-01 0.000000e+00
1.000045e-02 1.394044e-01 0.000000e+00
9.999443e-03 1.393993e-01 0.000000e+00
9.997917e-03 1.393951e-01 0.000000e+00
9.995830e-03 1.393923e-01 0.000000e+00
9.993215e-03 1.393914e-01 0.000000e+00
9.990251e-03 1.393929e-01 0.000000e+00
9.987299e-03 1.393969e-01 0.000000e+00
9.984869e-03 1.394034e-01 0.000000e+00
9.983486e-03 1.394117e-01 0.000000e+00
9.983486e-03 1.394205e-01 0.000000e+00
9.984869e-03 1.394288e-01 0.000000e+00
9.987299e-03 1.394353e-01 0.000000e+00
9.990251e-03 1.394393e-01 0.000000e+00
9.993215e-03 1.394408e-01 0.000000e+00
9.995830e-03 1.394399e-01 0.000000e+00
9.997917e-03 1.394371e-01 0.000000e+00
9.999443e-03 1.394329e-01 0.000000e+00
1.000045e-02 1.394278e-01 0.000000e+00
1.000102e-02 1.394221e-01 0.000000e+00
1.000121e-02 1.394161e-01 0.000000e+00
2.000246e-02 1.394161e-01 0.000000e+00
2.000211e-02 1.394102e-01 0.000000e+00
2.000104e-02 1.394045e-01 0.000000e+00
1.999910e-02 1.393993e-01 0.000000e+00
1.999614e-02 1.393948e-01 0.000000e+00
1.999202e-02 1.393916e-01 0.000000e+00
1.998674e-02 1.393903e-01 0.000000e+00
1.998063e-02 1.393913e-01 0.000000e+00
1.997441e-02 1.393953e-01 0.000000e+00
1.996919e-02 1.394022e-01 0.000000e+00
1.996618e-02 1.394112e-01 0.000000e+00
1.996618e-02 1.394210e-01 0.000000e+00
1.996919e-02 1.394300e-01 0.000000e+00
1.997441e-02 1.394369e-01 0.000000e+00
1.998063e-02 1.394409e-01 0.000000e+00
1.998674e-02 1.394420e-01 0.000000e+00
1.999202e-02 1.394406e-01 0.000000e+00
1.999614e-02 1.394374e-01 0.000000e+00
1.999910e-02 1.394329e-01 0.000000e+00
2.000104e-02 1.394277e-01 0.000000e+00
2.000211e-02 1.394220e-01 0.000000e+00
2.000246e-02 1.394161e-01 0.000000e+00
3.000376e-02 1.394161e-01 0.000000e+00
3.000330e-02 1.394104e-01 0.000000e+00
3.000184e-02 1.394048e-01 0.000000e+00
2.999916e-02 1.393994e-01 0.000000e+00
2.999497e-02 1.393946e-01 0.000000e+00
2.998896e-02 1.393907e-01 0.000000e+00
2.998099e-02 1.393885e-01 0.000000e+00
2.997137e-02 1.393888e-01 0.000000e+00
2.996119e-02 1.393925e-01 0.000000e+00
2.995236e-02 1.393999e-01 0.000000e+00
2.994715e-02 1.394103e-01 0.000000e+00
2.994715e-02 1.394219e-01 0.000000e+00
2.995236e-02 1.394323e-01 0.000000e+00
2.996119e-02 1.394397e-01 0.000000e+00
2.997137e-02 1.394434e-01 0.000000e+00
2.998099e-02 1.394437e-01 0.000000e+00
2.998896e-02 1.394415e-01 0.000000e+00
2.999497e-02 1.394376e-01 0.000000e+00
2.999916e-02 1.394328e-01 0.000000e+00
3.000184e-02 1.394274e-01 0.000000e+00
3.000330e-02 1.394218e-01 0.000000e+00
3.000376e-02 1.394161e-01 0.000000e+00
4.000505e-02 1.394161e-01 0.000000e+00
4.000453e-02 1.394108e-01 0.000000e+00
4.000286e-02 1.394054e-01 0.000000e+00
3.999974e-02 1.394001e-01 0.000000e+00
3.999469e-02 1.393949e-01 0.000000e+00
3.998712e-02 1.393901e-01 0.000000e+00
3.997653e-02 1.393866e-01 0.000000e+00
3.996298e-02 1.393854e-01 0.000000e+00
3.994772e-02 1.393883e-01 0.000000e+00
3.993373e-02 1.393962e-01 0.000000e+00
3.992513e-02 1.394088e-01 0.000000e+00
3.992513e-02 1.394234e-01 0.000000e+00
3.993373e-02 1.394360e-01 0.000000e+00
3.994772e-02 1.394440e-01 0.000000e+00
3.996298e-02 1.394468e-01 0.000000e+00
3.997653e-02 1.394457e-01 0.000000e+00
3.998712e-02 1.394421e-01 0.000000e+00
3.999469e-02 1.394373e-01 0.000000e+00
3.999974e-02 1.394321e-01 0.000000e+00
4.000286e-02 1.394268e-01 0.000000e+00
4.000453e-02 1.394214e-01 0.000000e+00
4.000505e-02 1.394161e-01 0.000000e+00
5.000616e-02 1.394161e-01 0.000000e+00
5.000565e-02 1.394115e-01 0.000000e+00
5.000400e-02 1.394067e-01 0.000000e+00
5.000083e-02 1.394016e-01 0.000000e+00
4.999548e-02 1.393961e-01 0.000000e+00
4.998698e-02 1.393904e-01 0.000000e+00
4.997421e-02 1.393851e-01 0.000000e+00
4.995644e-02 1.393815e-01 0.000000e+00
4.993451e-02 1.393824e-01 0.000000e+00
4.991258e-02 1.393905e-01 0.000000e+00
4.989820e-02 1.394064e-01 0.000000e+00
4.989820e-02 1.394258e-01 0.000000e+00
4.991258e-02 1.394417e-01 0.000000e+00
4.993451e-02 1.394498e-01 0.000000e+00
4.995644e-02 1.394507e-01 0.000000e+00
4.997421e-02 1.394471e-01 0.000000e+00
4.998698e-02 1.394418e-01 0.000000e+00
4.999548e-02 1.394361e-01 0.000000e+00
5.000083e-02 1.394306e-01 0.000000e+00
5.000400e-02 1.394255e-01 0.000000e+00
5.000565e-02 1.394207e-01 0.000000e+00
5.000616e-02 1.394161e-01 0.000000e+00
6.000684e-02 1.394161e-01 0.000000e+00
6.000641e-02 1.394125e-01 0.000000e+00
6.000501e-02 1.394086e-01 0.000000e+00
6.000222e-02 1.394042e-01 0.000000e+00
5.999727e-02 1.393990e-01 0.000000e+00
5.998886e-02 1.393927e-01 0.000000e+00
5.997506e-02 1.393854e-01 0.000000e+00
5.995351e-02 1.393782e-01 0.000000e+00
5.992315e-02 1.393749e-01 0.000000e+00
5.988841e-02 1.393815e-01 0.000000e+00
5.986304e-02 1.394021e-01 0.000000e+00
5.986304e-02 1.394301e-01 0.000000e+00
5.988841e-02 1.394507e-01 0.000000e+00
5.992315e-02 1.394573e-01 0.000000e+00
5.995351e-02 1.394540e-01 0.000000e+00
5.997506e-02 1.394468e-01 0.000000e+00
5.998886e-02 1.394395e-01 0.000000e+00
5.999727e-02 1.394332e-01 0.000000e+00
6.000222e-02 1.394280e-01 0.000000e+00
6.000501e-02 1.394236e-01 0.000000e+00
6.000641e-02 1.394197e-01 0.000000e+00
6.000684e-02 1.394161e-01 0.000000e+00
7.000682e-02 1.394161e-01 0.000000e+00
7.000652e-02 1.394138e-01 0.000000e+00
7.000551e-02 1.394112e-01 0.000000e+00
7.000345e-02 1.394081e-01 0.000000e+00
6.999960e-02 1.394039e-01 0.000000e+00
6.999258e-02 1.393980e-01 0.000000e+00
6.997981e-02 1.393895e-01 0.000000e+00
6.995682e-02 1.393783e-01 0.000000e+00
6.991766e-02 1.393672e-01 0.000000e+00
6.986216e-02 1.393674e-01 0.000000e+00
6.981324e-02 1.393940e-01 0.000000e+00
6.981324e-02 1.394382e-01 0.000000e+00
6.986216e-02 1.394648e-01 0.000000e+00
6.991766e-02 1.394650e-01 0.000000e+00
6.995682e-02 1.394539e-01 0.000000e+00
6.997981e-02 1.394427e-01 0.000000e+00
6.999258e-02 1.394342e-01 0.000000e+00
6.999960e-02 1.394283e-01 0.000000e+00
7.000345e-02 1.394241e-01 0.000000e+00
7.000551e-02 1.394210e-01 0.000000e+00
7.000652e-02 1.394184e-01 0.000000e+00
7.000682e-02 1.394161e-01 0.000000e+00
8.000588e-02 1.394161e-01 0.000000e+00
8.000571e-02 1.394152e-01 0.000000e+00
8.000514e-02 1.394141e-01 0.000000e+00
8.000393e-02 1.394127e-01 0.000000e+00
8.000156e-02 1.394104e-01 0.000000e+00
7.999696e-02 1.394065e-01 0.000000e+00
7.998775e-02 1.393995e-01 0.000000e+00
7.996841e-02 1.393867e-01 0.000000e+00
7.992619e-02 1.393656e-01 0.000000e+00
7.984134e-02 1.393472e-01 0.000000e+00
7.973524e-02 1.393763e-01 0.000000e+00
7.973524e-02 1.394559e-01 0.000000e+00
7.984134e-02 1.394850e-01 0.000000e+00
7.992619e-02 1.394666e-01 0.000000e+00
7.996841e-02 1.394455e-01 0.000000e+00
7.998775e-02 1.394327e-01 0.000000e+00
7.999696e-02 1.394257e-01 0.000000e+00
8.000156e-02 1.394218e-01 0.000000e+00
8.000393e-02 1.394195e-01 0.000000e+00
8.000514e-02 1.394181e-01 0.000000e+00
8.000571e-02 1.394170e-01 0.000000e+00
8.000588e-02 1.394161e-01 0.000000e+00
9.000401e-02 1.394161e-01 0.000000e+00
9.000394e-02 1.394164e-01 0.000000e+00
9.000370e-02 1.394167e-01 0.000000e+00
9.000317e-02 1.394170e-01 0.000000e+00
9.000213e-02 1.394171e-01 0.000000e+00
9.000002e-02 1.394165e-01 0.000000e+00
8.999557e-02 1.394143e-01 0.000000e+00
8.998509e-02 1.394073e-01 0.000000e+00
8.995605e-02 1.393872e-01 0.000000e+00
8.985819e-02 1.393340e-01 0.000000e+00
8.960053e-02 1.393336e-01 0.000000e+00
8.960053e-02 1.394986e-01 0.000000e+00
8.985819e-02 1.394982e-01 0.000000e+00
8.995605e-02 1.394450e-01 0.000000e+00
8.998509e-02 1.394250e-01 0.000000e+00
8.999557e-02 1.394179e-01 0.000000e+00
9.000002e-02 1.394157e-01 0.000000e+00
9.000213e-02 1.394151e-01 0.000000e+00
9.000317e-02 1.394152e-01 0.000000e+00
9.000370e-02 1.394155e-01 0.000000e+00
9.000394e-02 1.394158e-01 0.000000e+00
9.000401e-02 1.394161e-01 0.000000e+00
1.000014e-01 1.394161e-01 0.000000e+00
1.000014e-01 1.394171e-01 0.000000e+00
1.000014e-01 1.394183e-01 0.000000e+00
1.000012e-01 1.394197e-01 0.000000e+00
1.000010e-01 1.394214e-01 0.000000e+00
1.000005e-01 1.394237e-01 0.000000e+00
9.999944e-02 1.394265e-01 0.000000e+00
9.999700e-02 1.394297e-01 0.000000e+00
9.998941e-02 1.394317e-01 0.000000e+00
9.994817e-02 1.394210e-01 0.000000e+00
9.942244e-02 1.392588e-01 0.000000e+00
9.942244e-02 1.395734e-01 0.000000e+00
9.994817e-02 1.394112e-01 0.000000e+00
9.998941e-02 1.394005e-01 0.000000e+00
9.999700e-02 1.394026e-01 0.000000e+00
9.999944e-02 1.394057e-01 0.000000e+00
1.000005e-01 1.394085e-01 0.000000e+00
1.000010e-01 1.394108e-01 0.000000e+00
1.000012e-01 1.394125e-01 0.000000e+00
1.000014e-01 1.394139e-01 0.000000e+00
1.000014e-01 1.394151e-01 0.000000e+00
1.000014e-01 1.394161e-01 0.000000e+00
1.099986e-01 1.394161e-01 0.000000e+00
1.099986e-01 1.394171e-01 0.000000e+00
1.099986e-01 1.394183e-01 0.000000e+00
1.099988e-01 1.394197e-01 0.000000e+00
1.099990e-01 1.394214e-01 0.000000e+00
1.099995e-01 1.394237e-01 0.000000e+00
1.100006e-01 1.394265e-01 0.000000e+00
1.100030e-01 1.394297e-01 0.000000e+00
1.100106e-01 1.394317e-01 0.000000e+00
1.100518e-01 1.394210e-01 0.000000e+00
1.105776e-01 1.392588e-01 0.000000e+00
1.105776e-01 1.395734e-01 0.000000e+00
1.100518e-01 1.394112e-01 0.000000e+00
1.100106e-01 1.394005e-01 0.000000e+00
1.100030e-01 1.394026e-01 0.000000e+00
1.100006e-01 1.394057e-01 0.000000e+00
1.099995e-01 1.394085e-01 0.000000e+00
1.099990e-01 1.394108e-01 0.000000e+00
1.099988e-01 1.394125e-01 0.000000e+00
1.099986e-01 1.394139e-01 0.000000e+00
1.099986e-01 1.394151e-01 0.000000e+00
1.099986e-01 1.394161e-01 0.000000e+00
1.199960e-01 1.394161e-01 0.000000e+00
1.199961e-01 1.394164e-01 0.000000e+00
1.199963e-01 1.394167e-01 0.000000e+00
1.199968e-01 1.394170e-01 0.000000e+00
1.199979e-01 1.394171e-01 0.000000e+00
1.200000e-01 1.394165e-01 0.000000e+00
1.200044e-01 1.394143e-01 0.000000e+00
1.200149e-01 1.394073e-01 0.000000e+00
1.200440e-01 1.393872e-01 0.000000e+00
1.201418e-01 1.393340e-01 0.000000e+00
1.203995e-01 1.393336e-01 0.000000e+00
1.203995e-01 1.394986e-01 0.000000e+00
1.201418e-01 1.394982e-01 0.000000e+00
1.200440e-01 1.394450e-01 0.000000e+00
1.200149e-01 1.394250e-01 0.000000e+00
1.200044e-01 1.394179e-01 0.000000e+00
1.200000e-01 1.394157e-01 0.000000e+00
1.199979e-01 1.394151e-01 0.000000e+00
1.199968e-01 1.394152e-01 0.000000e+00
1.199963e-01 1.394155e-01 0.000000e+00
1.199961e-01 1.394158e-01 0.000000e+00
1.199960e-01 1.394161e-01 0.000000e+00
1.299941e-01 1.394161e-01 0.000000e+00
1.299943e-01 1.394152e-01 0.000000e+00
1.299949e-01 1.394141e-01 0.000000e+00
1.299961e-01 1.394127e-01 0.000000e+00
1.299984e-01 1.394104e-01 0.000000e+00
1.300030e-01 1.394065e-01 0.000000e+00
1.300122e-01 1.393995e-01 0.000000e+00
1.300316e-01 1.393867e-01 0.000000e+00
1.300738e-01 1.393656e-01 0.000000e+00
1.301587e-01 1.393472e-01 0.000000e+00
1.302648e-01 1.393763e-01 0.000000e+00
1.302648e-01 1.394559e-01 0.000000e+00
1.301587e-01 1.394850e-01 0.000000e+00
1.300738e-01 1.394666e-01 0.000000e+00
1.300316e-01 1.394455e-01 0.000000e+00
1.300122e-01 1.394327e-01 0.000000e+00
1.300030e-01 1.394257e-01 0.000000e+00
1.299984e-01 1.394218e-01 0.000000e+00
1.299961e-01 1.394195e-01 0.000000e+00
1.299949e-01 1.394181e-01 0.000000e+00
1.299943e-01 1.394170e-01 0.000000e+00
1.299941e-01 1.394161e-01 0.000000e+00
1.399932e-01 1.394161e-01 0.000000e+00
1.399935e-01 1.394138e-01 0.000000e+00
1.399945e-01 1.394112e-01 0.000000e+00
1.399966e-01 1.394081e-01 0.000000e+00
1.400004e-01 1.394039e-01 0.000000e+00
1.400074e-01 1.393980e-01 0.000000e+00
1.400202e-01 1.393895e-01 0.000000e+00
1.400432e-01 1.393783e-01 0.000000e+00
1.400823e-01 1.393672e-01 0.000000e+00
1.401378e-01 1.393674e-01 0.000000e+00
1.401868e-01 1.393940e-01 0.000000e+00
1.401868e-01 1.394382e-01 0.000000e+00
1.401378e-01 1.394648e-01 0.000000e+00
1.400823e-01 1.394650e-01 0.000000e+00
1.400432e-01 1.394539e-01 0.000000e+00
1.400202e-01 1.394427e-01 0.000000e+00
1.400074e-01 1.394342e-01 0.000000e+00
1.400004e-01 1.394283e-01 0.000000e+00
1.399966e-01 1.394241e-01 0.000000e+00
1.399945e-01 1.394210e-01 0.000000e+00
1.399935e-01 1.394184e-01 0.000000e+00
1.399932e-01 1.394161e-01 0.000000e+00
1.499932e-01 1.394161e-01 0.000000e+00
1.499936e-01 1.394125e-01 0.000000e+00
1.499950e-01 1.394086e-01 0.000000e+00
1.499978e-01 1.394042e-01 0.000000e+00
1.500027e-01 1.393990e-01 0.000000e+00
1.500111e-01 1.393927e-01 0.000000e+00
1.500249e-01 1.393854e-01 0.000000e+00
1.500465e-01 1.393782e-01 0.000000e+00
1.500768e-01 1.393749e-01 0.000000e+00
1.501116e-01 1.393815e-01 0.000000e+00
1.501370e-01 1.394021e-01 0.000000e+00
1.501370e-01 1.394301e-01 0.000000e+00
1.501116e-01 1.394507e-01 0.000000e+00
1.500768e-01 1.394573e-01 0.000000e+00
1.500465e-01 1.394540e-01 0.000000e+00
1.500249e-01 1.394468e-01 0.000000e+00
1.500111e-01 1.394395e-01 0.000000e+00
1.500027e-01 1.394332e-01 0.000000e+00
1.499978e-01 1.394280e-01 0.000000e+00
1.499950e-01 1.394236e-01 0.000000e+00
1.499936e-01 1.394197e-01 0.000000e+00
1.499932e-01 1.394161e-01 0.000000e+00
1.599938e-01 1.394161e-01 0.000000e+00
1.599944e-01 1.394115e-01 0.000000e+00
1.599960e-01 1.394067e-01 0.000000e+00
1.599992e-01 1.394016e-01 0.000000e+00
1.600045e-01 1.393961e-01 0.000000e+00
1.600130e-01 1.393904e-01 0.000000e+00
1.600258e-01 1.393851e-01 0.000000e+00
1.600436e-01 1.393815e-01 0.000000e+00
1.600655e-01 1.393824e-01 0.000000e+00
1.600874e-01 1.393905e-01 0.000000e+00
1.601018e-01 1.394064e-01 0.000000e+00
1.601018e-01 1.394258e-01 0.000000e+00
1.600874e-01 1.394417e-01 0.000000e+00
1.600655e-01 1.394498e-01 0.000000e+00
1.600436e-01 1.394507e-01 0.000000e+00
1.600258e-01 1.394471e-01 0.000000e+00
1.600130e-01 1.394418e-01 0.000000e+00
1.600045e-01 1.394361e-01 0.000000e+00
1.599992e-01 1.394306e-01 0.000000e+00
1.599960e-01 1.394255e-01 0.000000e+00
1.599944e-01 1.394207e-01 0.000000e+00
1.599938e-01 1.394161e-01 0.000000e+00
1.699949e-01 1.394161e-01 0.000000e+00
1.699955e-01 1.394108e-01 0.000000e+00
1.699971e-01 1.394054e-01 0.000000e+00
1.700003e-01 1.394001e-01 0.000000e+00
1.700053e-01 1.393949e-01 0.000000e+00
1.700129e-01 1.393901e-01 0.000000e+00
1.700235e-01 1.393866e-01 0.000000e+00
1.700370e-01 1.393854e-01 0.000000e+00
1.700523e-01 1.393883e-01 0.000000e+00
1.700663e-01 1.393962e-01 0.000000e+00
1.700749e-01 1.394088e-01 0.000000e+00
1.700749e-01 1.394234e-01 0.000000e+00
1.700663e-01 1.394360e-01 0.000000e+00
1.700523e-01 1.394440e-01 0.000000e+00
1.700370e-01 1.394468e-01 0.000000e+00
1.700235e-01 1.394457e-01 0.000000e+00
1.700129e-01 1.394421e-01 0.000000e+00
1.700053e-01 1.394373e-01 0.000000e+00
1.700003e-01 1.394321e-01 0.000000e+00
1.699971e-01 1.394268e-01 0.000000e+00
1.699955e-01 1.394214e-01 0.000000e+00
1.699949e-01 1.394161e-01 0.000000e+00
1.799962e-01 1.394161e-01 0.000000e+00
1.799967e-01 1.394104e-01 0.000000e+00
1.799982e-01 1.394048e-01 0.000000e+00
1.800008e-01 1.393994e-01 0.000000e+00
1.800050e-01 1.393946e-01 0.000000e+00
1.800110e-01 1.393907e-01 0.000000e+00
1.800190e-01 1.393885e-01 0.000000e+00
1.800286e-01 1.393888e-01 0.000000e+00
1.800388e-01 1.393925e-01 0.000000e+00
1.800476e-01 1.393999e-01 0.000000e+00
1.800529e-01 1.394103e-01 0.000000e+00
1.800529e-01 1.394219e-01 0.000000e+00
1.800476e-01 1.394323e-01 0.000000e+00
1.800388e-01 1.394397e-01 0.000000e+00
1.800286e-01 1.394434e-01 0.000000e+00
1.800190e-01 1.394437e-01 0.000000e+00
1.800110e-01 1.394415e-01 0.000000e+00
1.800050e-01 1.394376e-01 0.000000e+00
1.800008e-01 1.394328e-01 0.000000e+00
1.799982e-01 1.394274e-01 0.000000e+00
1.799967e-01 1.394218e-01 0.000000e+00
1.799962e-01 1.394161e-01 0.000000e+00
1.899975e-01 1.394161e-01 0.000000e+00
1.899979e-01 1.394102e-01 0.000000e+00
1.899990e-01 1.394045e-01 0.000000e+00
1.900009e-01 1.393993e-01 0.000000e+00
1.900039e-01 1.393948e-01 0.000000e+00
1.900080e-01 1.393916e-01 0.000000e+00
1.900133e-01 1.393903e-01 0.000000e+00
1.900194e-01 1.393913e-01 0.000000e+00
1.900256e-01 1.393953e-01 0.000000e+00
1.900308e-01 1.394022e-01 0.000000e+00
1.900338e-01 1.394112e-01 0.000000e+00
1.900338e-01 1.394210e-01 0.000000e+00
1.900308e-01 1.394300e-01 0.000000e+00
1.900256e-01 1.394369e-01 0.000000e+00
1.900194e-01 1.394409e-01 0.000000e+00
1.900133e-01 1.394420e-01 0.000000e+00
1.900080e-01 1.394406e-01 0.000000e+00
1.900039e-01 1.394374e-01 0.000000e+00
1.900009e-01 1.394329e-01 0.000000e+00
1.899990e-01 1.394277e-01 0.000000e+00
1.899979e-01 1.394220e-01 0.000000e+00
1.899975e-01 1.394161e-01 0.000000e+00
1.999988e-01 1.394161e-01 0.000000e+00
1.999990e-01 1.394101e-01 0.000000e+00
1.999995e-01 1.394044e-01 0.000000e+00
2.000006e-01 1.393993e-01 0.000000e+00
2.000021e-01 1.393951e-01 0.000000e+00
2.000042e-01 1.393923e-01 0.000000e+00
2.000068e-01 1.393914e-01 0.000000e+00
2.000097e-01 1.393929e-01 0.000000e+00
2.000127e-01 1.393969e-01 0.000000e+00
2.000151e-01 1.394034e-01 0.000000e+00
2.000165e-01 1.394117e-01 0.000000e+00
2.000165e-01 1.394205e-01 0.000000e+00
2.000151e-01 1.394288e-01 0.000000e+00
2.000127e-01 1.394353e-01 0.000000e+00
2.000097e-01 1.394393e-01 0.000000e+00
2.000068e-01 1.394408e-01 0.000000e+00
2.000042e-01 1.394399e-01 0.000000e+00
2.000021e-01 1.394371e-01 0.000000e+00
2.000006e-01 1.394329e-01 0.000000e+00
1.999995e-01 1.394278e-01 0.000000e+00
1.999990e-01 1.394221e-01 0.000000e+00
1.999988e-01 1.394161e-01 0.000000e+00
2.100000e-01 1.394161e-01 0.000000e+00
2.100000e-01 1.394101e-01 0.000000e+00
2.100000e-01 1.394044e-01 0.000000e+00
2.100000e-01 1.393993e-01 0.000000e+00
2.100000e-01 1.393952e-01 0.000000e+00
2.100000e-01 1.393925e-01 0.000000e+00
2.100000e-01 1.393918e-01 0.000000e+00
2.100000e-01 1.393934e-01 0.000000e+00
2.100000e-01 1.393974e-01 0.000000e+00
2.100000e-01 1.394038e-01 0.000000e+00
2.100000e-01 1.394118e-01 0.000000e+00
2.100000e-01 1.394204e-01 0.000000e+00
2.100000e-01 1.394284e-01 0.000000e+00
2.100000e-01 1.394348e-01 0.000000e+00
2.100000e-01 1.394388e-01 0.000000e+00
2.100000e-01 1.394404e-01 0.000000e+00
2.100000e-01 1.394397e-01 0.000000e+00
2.100000e-01 1.394370e-01 0.000000e+00
2.100000e-01 1.394329e-01 0.000000e+00
2.100000e-01 1.394278e-01 0.000000e+00
2.100000e-01 1.394221e-01 0.000000e+00
2.100000e-01 1.394161e-01 0.000000e+00

CELL_DATA 441
SCALARS mat_id int 1
LOOKUP_TABLE default
0
0
0
0
0
0
0
0
0