TITLE ="t=0.161000" 
VARIABLES = "x"  "y"          "phi" 
ZONE N=40501, E=40000, F=FEPOINT, ET=QUADRILATERAL
0.000000000000000e+00 0.000000000000000e+00  2.075404320499859e-02 
1.000000000000000e-02 0.000000000000000e+00  2.075408822802891e-02 
2.000000000000000e-02 0.000000000000000e+00  2.076076724951487e-02 
3.000000000000000e-02 0.000000000000000e+00  2.098587299231970e-02 
4.000000000000000e-02 0.000000000000000e+00  2.772675809409713e-02 
5.000000000000000e-02 0.000000000000000e+00  7.811019103955998e-02 
6.000000000000000e-02 0.000000000000000e+00  2.227949869342882e-01 
7.000000000000001e-02 0.000000000000000e+00  4.500468571383160e-01 
8.000000000000000e-02 0.000000000000000e+00  6.867193219610012e-01 
9.000000000000000e-02 0.000000000000000e+00  8.576221888518215e-01 
1.000000000000000e-01 0.000000000000000e+00  9.390167543892440e-01 
1.100000000000000e-01 0.000000000000000e+00  9.622874012319198e-01 
1.200000000000000e-01 0.000000000000000e+00  9.662300779031677e-01 
1.300000000000000e-01 0.000000000000000e+00  9.665406754572289e-01 
1.400000000000000e-01 0.000000000000000e+00  9.662706177912930e-01 
1.500000000000000e-01 0.000000000000000e+00  9.658744884635568e-01 
1.600000000000000e-01 0.000000000000000e+00  9.655088708564951e-01 
1.700000000000000e-01 0.000000000000000e+00  9.653201064687753e-01 
1.800000000000000e-01 0.000000000000000e+00  9.654010105115802e-01 
1.900000000000000e-01 0.000000000000000e+00  9.657254027167184e-01 
2.000000000000000e-01 0.000000000000000e+00  9.661706604011533e-01 
2.100000000000000e-01 0.000000000000000e+00  9.666010544793915e-01 
2.200000000000000e-01 0.000000000000000e+00  9.668846678891051e-01 
2.300000000000000e-01 0.000000000000000e+00  9.665218725774323e-01 
2.400000000000000e-01 0.000000000000000e+00  9.618973460735759e-01 
2.500000000000000e-01 0.000000000000000e+00  9.350160014030294e-01 
2.600000000000000e-01 0.000000000000000e+00  8.448731409589966e-01 
2.700000000000000e-01 0.000000000000000e+00  6.637868712604658e-01 
2.800000000000000e-01 0.000000000000000e+00  4.229856378793185e-01 
2.900000000000000e-01 0.000000000000000e+00  2.016051099092620e-01 
3.000000000000000e-01 0.000000000000000e+00  6.861246736716504e-02 
3.100000000000000e-01 0.000000000000000e+00  2.626577689510528e-02 
3.200000000000000e-01 0.000000000000000e+00  2.121543530530701e-02 
3.300000000000000e-01 0.000000000000000e+00  2.103803162968857e-02 
3.400000000000000e-01 0.000000000000000e+00  2.101069440726454e-02 
3.500000000000000e-01 0.000000000000000e+00  2.098888889746712e-02 
3.600000000000000e-01 0.000000000000000e+00  2.096757149148332e-02 
3.700000000000000e-01 0.000000000000000e+00  2.094700126087428e-02 
3.800000000000000e-01 0.000000000000000e+00  2.093548906208658e-02 
3.900000000000000e-01 0.000000000000000e+00  2.122797195675880e-02 
4.000000000000000e-01 0.000000000000000e+00  2.953280817432880e-02 
4.100000000000000e-01 0.000000000000000e+00  8.645019407882920e-02 
4.200000000000000e-01 0.000000000000000e+00  2.407999715673707e-01 
4.300000000000000e-01 0.000000000000000e+00  4.744085607404298e-01 
4.400000000000000e-01 0.000000000000000e+00  7.098119659765545e-01 
4.500000000000000e-01 0.000000000000000e+00  8.730206311700227e-01 
4.600000000000000e-01 0.000000000000000e+00  9.461090185630415e-01 
4.700000000000000e-01 0.000000000000000e+00  9.652348428585370e-01 
4.800000000000000e-01 0.000000000000000e+00  9.683289135783610e-01 
4.900000000000000e-01 0.000000000000000e+00  9.688541597895235e-01 
5.000000000000000e-01 0.000000000000000e+00  9.690522256508930e-01 
5.100000000000000e-01 0.000000000000000e+00  9.689473997080988e-01 
5.200000000000000e-01 0.000000000000000e+00  9.663703097708172e-01 
5.300000000000000e-01 0.000000000000000e+00  9.475055599415650e-01 
5.400000000000000e-01 0.000000000000000e+00  8.727310683549583e-01 
5.500000000000000e-01 0.000000000000000e+00  7.055837673393492e-01 
5.600000000000001e-01 0.000000000000000e+00  4.673893044599691e-01 
5.700000000000001e-01 0.000000000000000e+00  2.354044089564853e-01 
5.800000000000000e-01 0.000000000000000e+00  8.560356943680521e-02 
5.900000000000000e-01 0.000000000000000e+00  3.120215767396022e-02 
6.000000000000000e-01 0.000000000000000e+00  2.289228252678478e-02 
6.100000000000000e-01 0.000000000000000e+00  2.249933350524896e-02 
6.200000000000000e-01 0.000000000000000e+00  2.251492761702045e-02 
6.300000000000000e-01 0.000000000000000e+00  2.253786450728964e-02 
6.400000000000000e-01 0.000000000000000e+00  2.255512249537848e-02 
6.500000000000000e-01 0.000000000000000e+00  2.256627730914163e-02 
6.600000000000000e-01 0.000000000000000e+00  2.257145659532784e-02 
6.700000000000000e-01 0.000000000000000e+00  2.257080566560024e-02 
6.800000000000000e-01 0.000000000000000e+00  2.256445397146052e-02 
6.900000000000001e-01 0.000000000000000e+00  2.255250654572679e-02 
7.000000000000001e-01 0.000000000000000e+00  2.253504195134782e-02 
7.100000000000000e-01 0.000000000000000e+00  2.251212388268228e-02 
7.200000000000000e-01 0.000000000000000e+00  2.248402252418863e-02 
7.300000000000000e-01 0.000000000000000e+00  2.245574638214961e-02 
7.400000000000000e-01 0.000000000000000e+00  2.257056995709385e-02 
7.500000000000000e-01 0.000000000000000e+00  2.643739776306464e-02 
7.600000000000000e-01 0.000000000000000e+00  6.110383006613712e-02 
7.700000000000000e-01 0.000000000000000e+00  1.804272926206340e-01 
7.800000000000000e-01 0.000000000000000e+00  3.938928086752069e-01 
7.900000000000000e-01 0.000000000000000e+00  6.391811033449538e-01 
8.000000000000000e-01 0.000000000000000e+00  8.324465821123936e-01 
8.100000000000001e-01 0.000000000000000e+00  9.326815298472325e-01 
8.200000000000001e-01 0.000000000000000e+00  9.631667868131021e-01 
8.300000000000001e-01 0.000000000000000e+00  9.681860540681190e-01 
8.400000000000000e-01 0.000000000000000e+00  9.685202352193301e-01 
8.500000000000000e-01 0.000000000000000e+00  9.682510399075881e-01 
8.600000000000000e-01 0.000000000000000e+00  9.676398440718216e-01 
8.700000000000000e-01 0.000000000000000e+00  9.648389979044941e-01 
8.800000000000000e-01 0.000000000000000e+00  9.485110448960042e-01 
8.900000000000000e-01 0.000000000000000e+00  8.843355070366189e-01 
9.000000000000000e-01 0.000000000000000e+00  7.339642323420233e-01 
9.100000000000000e-01 0.000000000000000e+00  5.063285680025574e-01 
9.200000000000000e-01 0.000000000000000e+00  2.683643744887705e-01 
9.300000000000000e-01 0.000000000000000e+00  1.002086506984744e-01 
9.400000000000001e-01 0.000000000000000e+00  3.174232471680304e-02 
9.500000000000001e-01 0.000000000000000e+00  2.049195441368844e-02 
9.600000000000000e-01 0.000000000000000e+00  2.005110201871581e-02 
9.700000000000000e-01 0.000000000000000e+00  2.002917283087416e-02 
9.800000000000000e-01 0.000000000000000e+00  2.000914495186350e-02 
9.900000000000000e-01 0.000000000000000e+00  1.998462195378929e-02 
1.000000000000000e+00 0.000000000000000e+00  1.998914719033673e-02 
1.010000000000000e+00 0.000000000000000e+00  2.260777834978684e-02 
1.020000000000000e+00 0.000000000000000e+00  5.390604488357608e-02 
1.030000000000000e+00 0.000000000000000e+00  1.701857016032338e-01 
1.040000000000000e+00 0.000000000000000e+00  3.811518514154192e-01 
1.050000000000000e+00 0.000000000000000e+00  6.249922696449099e-01 
1.060000000000000e+00 0.000000000000000e+00  8.200444267601872e-01 
1.070000000000000e+00 0.000000000000000e+00  9.252182672013510e-01 
1.080000000000000e+00 0.000000000000000e+00  9.601333959271507e-01 
1.090000000000000e+00 0.000000000000000e+00  9.671741037245556e-01 
1.100000000000000e+00 0.000000000000000e+00  9.684158728410754e-01 
1.110000000000000e+00 0.000000000000000e+00  9.688260222204769e-01 
1.120000000000000e+00 0.000000000000000e+00  9.690799866029548e-01 
1.130000000000000e+00 0.000000000000000e+00  9.692622281236063e-01 
1.140000000000000e+00 0.000000000000000e+00  9.693734179972546e-01 
1.150000000000000e+00 0.000000000000000e+00  9.692529034261506e-01 
1.160000000000000e+00 0.000000000000000e+00  9.673020572602208e-01 
1.170000000000000e+00 0.000000000000000e+00  9.524921668505099e-01 
1.180000000000000e+00 0.000000000000000e+00  8.887307148843373e-01 
1.190000000000000e+00 0.000000000000000e+00  7.352041161298951e-01 
1.200000000000000e+00 0.000000000000000e+00  5.031011229380404e-01 
1.210000000000000e+00 0.000000000000000e+00  2.642140364965165e-01 
1.220000000000000e+00 0.000000000000000e+00  9.951953360462037e-02 
1.230000000000000e+00 0.000000000000000e+00  3.390164195213938e-02 
1.240000000000000e+00 0.000000000000000e+00  2.269970225366411e-02 
1.250000000000000e+00 0.000000000000000e+00  2.221096668325325e-02 
1.260000000000000e+00 0.000000000000000e+00  2.236798863186292e-02 
1.270000000000000e+00 0.000000000000000e+00  2.258681492244401e-02 
1.280000000000000e+00 0.000000000000000e+00  2.285105102141297e-02 
1.290000000000000e+00 0.000000000000000e+00  2.316069439548633e-02 
1.300000000000000e+00 0.000000000000000e+00  2.351570811575307e-02 
1.310000000000000e+00 0.000000000000000e+00  2.391488433723015e-02 
1.320000000000000e+00 0.000000000000000e+00  2.435525962006163e-02 
1.330000000000000e+00 0.000000000000000e+00  2.483145292638169e-02 
1.340000000000000e+00 0.000000000000000e+00  2.533493380499656e-02 
1.350000000000000e+00 0.000000000000000e+00  2.585332453807098e-02 
1.360000000000000e+00 0.000000000000000e+00  2.636992214859030e-02 
1.370000000000000e+00 0.000000000000000e+00  2.686369839090361e-02 
1.380000000000000e+00 0.000000000000000e+00  2.731008945147358e-02 
1.390000000000000e+00 0.000000000000000e+00  2.768284095699266e-02 
1.400000000000000e+00 0.000000000000000e+00  2.795693849061329e-02 
1.410000000000000e+00 0.000000000000000e+00  2.811224598934856e-02 
1.420000000000000e+00 0.000000000000000e+00  2.813699310291085e-02 
1.430000000000000e+00 0.000000000000000e+00  2.803001112915239e-02 
1.440000000000000e+00 0.000000000000000e+00  2.780091741388932e-02 
1.450000000000000e+00 0.000000000000000e+00  2.746819593260778e-02 
1.460000000000000e+00 0.000000000000000e+00  2.705589710646377e-02 
1.470000000000000e+00 0.000000000000000e+00  2.659003004372056e-02 
1.480000000000000e+00 0.000000000000000e+00  2.609552880797926e-02 
1.490000000000000e+00 0.000000000000000e+00  2.559423813839311e-02 
1.500000000000000e+00 0.000000000000000e+00  2.510395023097125e-02 
1.510000000000000e+00 0.000000000000000e+00  2.463826373439760e-02 
1.520000000000000e+00 0.000000000000000e+00  2.420697707334418e-02 
1.530000000000000e+00 0.000000000000000e+00  2.381675328468190e-02 
1.540000000000000e+00 0.000000000000000e+00  2.347185670242459e-02 
1.550000000000000e+00 0.000000000000000e+00  2.317484544321880e-02 
1.560000000000000e+00 0.000000000000000e+00  2.292717652569086e-02 
1.570000000000000e+00 0.000000000000000e+00  2.272979906142907e-02 
1.580000000000000e+00 0.000000000000000e+00  2.258623965562328e-02 
1.590000000000000e+00 0.000000000000000e+00  2.258839200246549e-02 
1.600000000000000e+00 0.000000000000000e+00  2.537315088845911e-02 
1.610000000000000e+00 0.000000000000000e+00  5.418637374746745e-02 
1.620000000000000e+00 0.000000000000000e+00  1.633303091115985e-01 
1.630000000000000e+00 0.000000000000000e+00  3.707829143810287e-01 
1.640000000000000e+00 0.000000000000000e+00  6.193430413380824e-01 
1.650000000000000e+00 0.000000000000000e+00  8.218826720825183e-01 
1.660000000000000e+00 0.000000000000000e+00  9.292909461671646e-01 
1.670000000000000e+00 0.000000000000000e+00  9.575241478327436e-01 
1.680000000000000e+00 0.000000000000000e+00  9.327753389869444e-01 
1.690000000000000e+00 0.000000000000000e+00  8.305515903914114e-01 
1.700000000000000e+00 0.000000000000000e+00  6.323055394551450e-01 
1.710000000000000e+00 0.000000000000000e+00  3.843801888820454e-01 
1.720000000000000e+00 0.000000000000000e+00  1.734950355906541e-01 
1.730000000000000e+00 0.000000000000000e+00  5.909008951754883e-02 
1.740000000000000e+00 0.000000000000000e+00  2.683293124921673e-02 
1.750000000000000e+00 0.000000000000000e+00  2.314445652986063e-02 
1.760000000000000e+00 0.000000000000000e+00  2.289596356813508e-02 
1.770000000000000e+00 0.000000000000000e+00  2.280868083230143e-02 
1.780000000000000e+00 0.000000000000000e+00  2.274522306405175e-02 
1.790000000000000e+00 0.000000000000000e+00  2.270031904025092e-02 
1.800000000000000e+00 0.000000000000000e+00  2.267301131979733e-02 
1.810000000000000e+00 0.000000000000000e+00  2.266267922825423e-02 
1.820000000000000e+00 0.000000000000000e+00  2.266887978159641e-02 
1.830000000000000e+00 0.000000000000000e+00  2.269132331015938e-02 
1.840000000000000e+00 0.000000000000000e+00  2.272985954273088e-02 
1.850000000000000e+00 0.000000000000000e+00  2.278447762176685e-02 
1.860000000000000e+00 0.000000000000000e+00  2.285555321188022e-02 
1.870000000000000e+00 0.000000000000000e+00  2.295101030382485e-02 
1.880000000000000e+00 0.000000000000000e+00  2.330573682555582e-02 
1.890000000000000e+00 0.000000000000000e+00  2.874185869731061e-02 
1.900000000000000e+00 0.000000000000000e+00  6.960135206177835e-02 
1.910000000000000e+00 0.000000000000000e+00  1.984629416302458e-01 
1.920000000000000e+00 0.000000000000000e+00  4.184457740221330e-01 
1.930000000000000e+00 0.000000000000000e+00  6.626496607015345e-01 
1.940000000000000e+00 0.000000000000000e+00  8.475017804949325e-01 
1.950000000000000e+00 0.000000000000000e+00  9.364990566400998e-01 
1.960000000000000e+00 0.000000000000000e+00  9.526476278986354e-01 
1.970000000000000e+00 0.000000000000000e+00  9.121024087701683e-01 
1.980000000000000e+00 0.000000000000000e+00  7.866157991270709e-01 
1.990000000000000e+00 0.000000000000000e+00  5.713430237954662e-01 
2.000000000000000e+00 0.000000000000000e+00  3.245034238234080e-01 
2.010000000000000e+00 0.000000000000000e+00  1.322801266687668e-01 
2.020000000000000e+00 0.000000000000000e+00  4.146602251778105e-02 
2.030000000000000e+00 0.000000000000000e+00  2.206149932156484e-02 
2.040000000000000e+00 0.000000000000000e+00  2.081136114831126e-02 
2.050000000000000e+00 0.000000000000000e+00  2.076461346553572e-02 
2.060000000000000e+00 0.000000000000000e+00  2.074857002622518e-02 
2.070000000000000e+00 0.000000000000000e+00  2.074284424072791e-02 
2.080000000000000e+00 0.000000000000000e+00  2.074610175247538e-02 
2.090000000000000e+00 0.000000000000000e+00  2.075946402754836e-02 
2.100000000000000e+00 0.000000000000000e+00  2.082424480053129e-02 
2.110000000000000e+00 0.000000000000000e+00  2.323843275463807e-02 
2.120000000000000e+00 0.000000000000000e+00  5.180522703541987e-02 
2.130000000000000e+00 0.000000000000000e+00  1.627073369562755e-01 
2.140000000000000e+00 0.000000000000000e+00  3.716873046325677e-01 
2.150000000000000e+00 0.000000000000000e+00  6.193237763431410e-01 
2.160000000000000e+00 0.000000000000000e+00  8.201788237698662e-01 
2.170000000000000e+00 0.000000000000000e+00  9.283602892623107e-01 
2.180000000000000e+00 0.000000000000000e+00  9.630521475415990e-01 
2.190000000000000e+00 0.000000000000000e+00  9.692255756378728e-01 
2.200000000000000e+00 0.000000000000000e+00  9.680433830121145e-01 
2.210000000000000e+00 0.000000000000000e+00  9.512947017498882e-01 
2.220000000000000e+00 0.000000000000000e+00  8.795241907468451e-01 
2.230000000000000e+00 0.000000000000000e+00  7.140077937399600e-01 
2.240000000000000e+00 0.000000000000000e+00  4.753567705546707e-01 
2.250000000000000e+00 0.000000000000000e+00  2.418033422606964e-01 
2.260000000000000e+00 0.000000000000000e+00  8.997858362251283e-02 
2.270000000000000e+00 0.000000000000000e+00  3.345104184087452e-02 
2.280000000000000e+00 0.000000000000000e+00  2.407597109900181e-02 
2.290000000000000e+00 0.000000000000000e+00  2.345913945709668e-02 
2.300000000000000e+00 0.000000000000000e+00  2.340397927689682e-02 
2.310000000000000e+00 0.000000000000000e+00  2.337411732943139e-02 
2.320000000000000e+00 0.000000000000000e+00  2.334969752288928e-02 
2.330000000000000e+00 0.000000000000000e+00  2.333042631362215e-02 
2.340000000000000e+00 0.000000000000000e+00  2.331673626178044e-02 
2.350000000000000e+00 0.000000000000000e+00  2.330906391519092e-02 
2.360000000000000e+00 0.000000000000000e+00  2.330782281374183e-02 
2.370000000000000e+00 0.000000000000000e+00  2.331340538352802e-02 
2.380000000000000e+00 0.000000000000000e+00  2.332618555225965e-02 
2.390000000000000e+00 0.000000000000000e+00  2.334652076304420e-02 
2.400000000000000e+00 0.000000000000000e+00  2.337475331253104e-02 
2.410000000000000e+00 0.000000000000000e+00  2.341121097064684e-02 
2.420000000000000e+00 0.000000000000000e+00  2.345620678965592e-02 
2.430000000000000e+00 0.000000000000000e+00  2.351003799935840e-02 
2.440000000000000e+00 0.000000000000000e+00  2.357298485081176e-02 
2.450000000000000e+00 0.000000000000000e+00  2.364533210866456e-02 
2.460000000000000e+00 0.000000000000000e+00  2.372792768968876e-02 
2.470000000000000e+00 0.000000000000000e+00  2.383547111049792e-02 
2.480000000000000e+00 0.000000000000000e+00  2.430991818836728e-02 
2.490000000000000e+00 0.000000000000000e+00  3.067648088400956e-02 
2.500000000000000e+00 0.000000000000000e+00  7.393758995243947e-02 
2.510000000000000e+00 0.000000000000000e+00  2.045117843811195e-01 
2.520000000000000e+00 0.000000000000000e+00  4.235360457783814e-01 
2.530000000000000e+00 0.000000000000000e+00  6.648519567248299e-01 
2.540000000000000e+00 0.000000000000000e+00  8.473358189956954e-01 
2.550000000000000e+00 0.000000000000000e+00  9.370202407096666e-01 
2.560000000000000e+00 0.000000000000000e+00  9.621408204879316e-01 
2.570000000000000e+00 0.000000000000000e+00  9.650011555051927e-01 
2.580000000000000e+00 0.000000000000000e+00  9.634751198778109e-01 
2.590000000000000e+00 0.000000000000000e+00  9.609047465513834e-01 
2.600000000000000e+00 0.000000000000000e+00  9.573811946992503e-01 
2.610000000000000e+00 0.000000000000000e+00  9.517909782721338e-01 
2.620000000000000e+00 0.000000000000000e+00  9.406456192234083e-01 
2.630000000000000e+00 0.000000000000000e+00  9.155947960418747e-01 
2.640000000000000e+00 0.000000000000000e+00  8.637218663366136e-01 
2.650000000000000e+00 0.000000000000000e+00  7.765856707041603e-01 
2.660000000000000e+00 0.000000000000000e+00  6.628219429354801e-01 
2.670000000000000e+00 0.000000000000000e+00  5.502161360322868e-01 
2.680000000000000e+00 0.000000000000000e+00  4.736620066109139e-01 
2.690000000000000e+00 0.000000000000000e+00  4.584848535760434e-01 
2.700000000000000e+00 0.000000000000000e+00  5.096813257614430e-01 
2.710000000000000e+00 0.000000000000000e+00  6.100764785561156e-01 
2.720000000000000e+00 0.000000000000000e+00  7.271874248958238e-01 
2.730000000000000e+00 0.000000000000000e+00  8.281625667531086e-01 
2.740000000000000e+00 0.000000000000000e+00  8.952928512518501e-01 
2.750000000000000e+00 0.000000000000000e+00  9.306122772661944e-01 
2.760000000000000e+00 0.000000000000000e+00  9.465533384913246e-01 
2.770000000000000e+00 0.000000000000000e+00  9.538911002975615e-01 
2.780000000000000e+00 0.000000000000000e+00  9.579902406781480e-01 
2.790000000000000e+00 0.000000000000000e+00  9.608229186504710e-01 
2.800000000000000e+00 0.000000000000000e+00  9.630493660306744e-01 
2.810000000000000e+00 0.000000000000000e+00  9.649177872383535e-01 
2.820000000000000e+00 0.000000000000000e+00  9.665489112198398e-01 
2.830000000000000e+00 0.000000000000000e+00  9.680171081522670e-01 
2.840000000000000e+00 0.000000000000000e+00  9.693744924809893e-01 
2.850000000000000e+00 0.000000000000000e+00  9.706558980028945e-01 
2.860000000000000e+00 0.000000000000000e+00  9.718426607360787e-01 
2.870000000000000e+00 0.000000000000000e+00  9.724058802250516e-01 
2.880000000000000e+00 0.000000000000000e+00  9.665848324616854e-01 
2.890000000000000e+00 0.000000000000000e+00  9.249878398005414e-01 
2.900000000000000e+00 0.000000000000000e+00  7.986517161848413e-01 
2.910000000000000e+00 0.000000000000000e+00  5.834044715805845e-01 
2.920000000000000e+00 0.000000000000000e+00  3.419603362040578e-01 
2.930000000000000e+00 0.000000000000000e+00  1.556376341903576e-01 
2.940000000000000e+00 0.000000000000000e+00  6.187907691859325e-02 
2.950000000000000e+00 0.000000000000000e+00  3.476411893464498e-02 
2.960000000000000e+00 0.000000000000000e+00  3.068792936440953e-02 
2.970000000000000e+00 0.000000000000000e+00  3.118837828575800e-02 
2.980000000000000e+00 0.000000000000000e+00  3.715906746423065e-02 
2.990000000000000e+00 0.000000000000000e+00  6.937960420645382e-02 
3.000000000000000e+00 0.000000000000000e+00  1.710910486745317e-01 
3.010000000000000e+00 0.000000000000000e+00  3.638474175607376e-01 
3.020000000000000e+00 0.000000000000000e+00  6.070683260757698e-01 
3.030000000000000e+00 0.000000000000000e+00  8.189189456473461e-01 
3.040000000000000e+00 0.000000000000000e+00  9.380493637352393e-01 
3.050000000000000e+00 0.000000000000000e+00  9.729620536773301e-01 
3.060000000000000e+00 0.000000000000000e+00  9.765899519307838e-01 
3.070000000000000e+00 0.000000000000000e+00  9.761557098428889e-01 
3.080000000000000e+00 0.000000000000000e+00  9.755340003769570e-01 
3.090000000000000e+00 0.000000000000000e+00  9.749339012983462e-01 
3.100000000000000e+00 0.000000000000000e+00  9.743655017270996e-01 
3.110000000000000e+00 0.000000000000000e+00  9.738265447730400e-01 
3.120000000000000e+00 0.000000000000000e+00  9.733136998422305e-01 
3.130000000000000e+00 0.000000000000000e+00  9.728237978365286e-01 
3.140000000000000e+00 0.000000000000000e+00  9.723541417428720e-01 
3.150000000000000e+00 0.000000000000000e+00  9.719026357435104e-01 
3.160000000000000e+00 0.000000000000000e+00  9.714678209174197e-01 
3.170000000000000e+00 0.000000000000000e+00  9.710488509775956e-01 
3.180000000000000e+00 0.000000000000000e+00  9.706454297164298e-01 
3.190000000000000e+00 0.000000000000000e+00  9.702577324538075e-01 
3.200000000000000e+00 0.000000000000000e+00  9.698863333029880e-01 
3.210000000000000e+00 0.000000000000000e+00  9.695321601669615e-01 
3.220000000000000e+00 0.000000000000000e+00  9.691964978143344e-01 
3.230000000000000e+00 0.000000000000000e+00  9.688810507238612e-01 
3.240000000000000e+00 0.000000000000000e+00  9.685880440824145e-01 
3.250000000000000e+00 0.000000000000000e+00  9.683202315936207e-01 
3.260000000000000e+00 0.000000000000000e+00  9.680803764327407e-01 
3.270000000000000e+00 0.000000000000000e+00  9.678690304652540e-01 
3.280000000000000e+00 0.000000000000000e+00  9.676781166561162e-01 
3.290000000000000e+00 0.000000000000000e+00  9.674758110813817e-01 
3.300000000000000e+00 0.000000000000000e+00  9.671782504945798e-01 
3.310000000000000e+00 0.000000000000000e+00  9.666073559952916e-01 
3.320000000000000e+00 0.000000000000000e+00  9.654597910161301e-01 
3.330000000000000e+00 0.000000000000000e+00  9.633614035550233e-01 
3.340000000000000e+00 0.000000000000000e+00  9.601350022428859e-01 
3.350000000000000e+00 0.000000000000000e+00  9.562818090226349e-01 
3.360000000000000e+00 0.000000000000000e+00  9.531344984476270e-01 
3.370000000000000e+00 0.000000000000000e+00  9.521687907682097e-01 
3.380000000000000e+00 0.000000000000000e+00  9.539433912741420e-01 
3.390000000000000e+00 0.000000000000000e+00  9.576629240732668e-01 
3.400000000000000e+00 0.000000000000000e+00  9.617742166489623e-01 
3.410000000000000e+00 0.000000000000000e+00  9.650318280816592e-01 
3.420000000000000e+00 0.000000000000000e+00  9.670653426765022e-01 
3.430000000000000e+00 0.000000000000000e+00  9.681281307568121e-01 
3.440000000000000e+00 0.000000000000000e+00  9.686070737724745e-01 
3.450000000000000e+00 0.000000000000000e+00  9.687931933247711e-01 
3.460000000000000e+00 0.000000000000000e+00  9.688555565763507e-01 
3.470000000000000e+00 0.000000000000000e+00  9.688765793171734e-01 
3.480000000000000e+00 0.000000000000000e+00  9.688915380657284e-01 
3.490000000000000e+00 0.000000000000000e+00  9.689128834365299e-01 
3.500000000000000e+00 0.000000000000000e+00  9.689433809253069e-01 
3.510000000000000e+00 0.000000000000000e+00  9.689820551646201e-01 
3.520000000000000e+00 0.000000000000000e+00  9.690266386422719e-01 
3.530000000000000e+00 0.000000000000000e+00  9.690744159750017e-01 
3.540000000000000e+00 0.000000000000000e+00  9.691223308109087e-01 
3.550000000000000e+00 0.000000000000000e+00  9.691665824035748e-01 
3.560000000000000e+00 0.000000000000000e+00  9.692017511584476e-01 
3.570000000000000e+00 0.000000000000000e+00  9.692194064805112e-01 
3.580000000000000e+00 0.000000000000000e+00  9.692071035160793e-01 
3.590000000000000e+00 0.000000000000000e+00  9.691492090898721e-01 
3.600000000000000e+00 0.000000000000000e+00  9.690321108460034e-01 
3.610000000000000e+00 0.000000000000000e+00  9.688565343295725e-01 
3.620000000000000e+00 0.000000000000000e+00  9.686508040045929e-01 
3.630000000000000e+00 0.000000000000000e+00  9.684733472077097e-01 
3.640000000000000e+00 0.000000000000000e+00  9.683922201265792e-01 
3.650000000000000e+00 0.000000000000000e+00  9.684451057003135e-01 
3.660000000000000e+00 0.000000000000000e+00  9.686131107931900e-01 
3.670000000000000e+00 0.000000000000000e+00  9.688362387087601e-01 
3.680000000000000e+00 0.000000000000000e+00  9.690534798151577e-01 
3.690000000000000e+00 0.000000000000000e+00  9.692301839406319e-01 
3.700000000000000e+00 0.000000000000000e+00  9.693606799549703e-01 
3.710000000000000e+00 0.000000000000000e+00  9.694565200367061e-01 
3.720000000000000e+00 0.000000000000000e+00  9.695327831791192e-01 
3.730000000000000e+00 0.000000000000000e+00  9.696010889296125e-01 
3.740000000000000e+00 0.000000000000000e+00  9.696682386246356e-01 
3.750000000000000e+00 0.000000000000000e+00  9.697371234842318e-01 
3.760000000000000e+00 0.000000000000000e+00  9.698083853436227e-01 
3.770000000000000e+00 0.000000000000000e+00  9.698815694910163e-01 
3.780000000000000e+00 0.000000000000000e+00  9.699556989677502e-01 
3.790000000000000e+00 0.000000000000000e+00  9.700285444200580e-01 
3.800000000000000e+00 0.000000000000000e+00  9.700859292785893e-01 
3.810000000000000e+00 0.000000000000000e+00  9.699885840649680e-01 
3.820000000000000e+00 0.000000000000000e+00  9.683397392817941e-01 
3.830000000000000e+00 0.000000000000000e+00  9.548423112214993e-01 
3.840000000000000e+00 0.000000000000000e+00  8.938238533893780e-01 
3.850000000000000e+00 0.000000000000000e+00  7.429012153052293e-01 
3.860000000000000e+00 0.000000000000000e+00  5.115186567004286e-01 
3.870000000000000e+00 0.000000000000000e+00  2.711894627365286e-01 
3.880000000000000e+00 0.000000000000000e+00  1.037683988320999e-01 
3.890000000000000e+00 0.000000000000000e+00  3.559413490310390e-02 
3.900000000000000e+00 0.000000000000000e+00  2.329402765216607e-02 
3.910000000000000e+00 0.000000000000000e+00  2.256375974830805e-02 
3.920000000000000e+00 0.000000000000000e+00  2.256580130437240e-02 
3.930000000000000e+00 0.000000000000000e+00  2.258885017304169e-02 
3.940000000000000e+00 0.000000000000000e+00  2.261003327867974e-02 
3.950000000000000e+00 0.000000000000000e+00  2.262828917625879e-02 
3.960000000000000e+00 0.000000000000000e+00  2.264342803533258e-02 
3.970000000000000e+00 0.000000000000000e+00  2.265532772319090e-02 
3.980000000000000e+00 0.000000000000000e+00  2.266389471422418e-02 
3.990000000000000e+00 0.000000000000000e+00  2.266906187312513e-02 
4.000000000000000e+00 0.000000000000000e+00  2.267078876361674e-02 
0.000000000000000e+00 1.000000000000000e-02  2.075509901839574e-02 
1.000000000000000e-02 1.000000000000000e-02  2.075658850810365e-02 
2.000000000000000e-02 1.000000000000000e-02  2.077996724439813e-02 
3.000000000000000e-02 1.000000000000000e-02  2.123967728057893e-02 
4.000000000000000e-02 1.000000000000000e-02  3.034910506339110e-02 
5.000000000000000e-02 1.000000000000000e-02  8.804563939813133e-02 
6.000000000000000e-02 1.000000000000000e-02  2.397972517085227e-01 
7.000000000000001e-02 1.000000000000000e-02  4.681880372698853e-01 
8.000000000000000e-02 1.000000000000000e-02  7.001417274707025e-01 
9.000000000000000e-02 1.000000000000000e-02  8.643199585914646e-01 
1.000000000000000e-01 1.000000000000000e-02  9.409404188521316e-01 
1.100000000000000e-01 1.000000000000000e-02  9.623971485986966e-01 
1.200000000000000e-01 1.000000000000000e-02  9.658142648622349e-01 
1.300000000000000e-01 1.000000000000000e-02  9.656252259295818e-01 
1.400000000000000e-01 1.000000000000000e-02  9.645517700014813e-01 
1.500000000000000e-01 1.000000000000000e-02  9.630783049935077e-01 
1.600000000000000e-01 1.000000000000000e-02  9.616567851857357e-01 
1.700000000000000e-01 1.000000000000000e-02  9.608792370976382e-01 
1.800000000000000e-01 1.000000000000000e-02  9.611327020364669e-01 
1.900000000000000e-01 1.000000000000000e-02  9.623036278104258e-01 
2.000000000000000e-01 1.000000000000000e-02  9.638693902447473e-01 
2.100000000000000e-01 1.000000000000000e-02  9.652824352380737e-01 
2.200000000000000e-01 1.000000000000000e-02  9.662253774351991e-01 
2.300000000000000e-01 1.000000000000000e-02  9.662530611392913e-01 
2.400000000000000e-01 1.000000000000000e-02  9.621421111949594e-01 
2.500000000000000e-01 1.000000000000000e-02  9.372093487827607e-01 
2.600000000000000e-01 1.000000000000000e-02  8.518608605259315e-01 
2.700000000000000e-01 1.000000000000000e-02  6.769709226774477e-01 
2.800000000000000e-01 1.000000000000000e-02  4.398405021873622e-01 
2.900000000000000e-01 1.000000000000000e-02  2.163927728604902e-01 
3.000000000000000e-01 1.000000000000000e-02  7.645052274112749e-02 
3.100000000000000e-01 1.000000000000000e-02  2.805909331166698e-02 
3.200000000000000e-01 1.000000000000000e-02  2.136554446315741e-02 
3.300000000000000e-01 1.000000000000000e-02  2.104826913250579e-02 
3.400000000000000e-01 1.000000000000000e-02  2.101193328726986e-02 
3.500000000000000e-01 1.000000000000000e-02  2.098894841235547e-02 
3.600000000000000e-01 1.000000000000000e-02  2.096764060846008e-02 
3.700000000000000e-01 1.000000000000000e-02  2.094852891745254e-02 