TITLE ="t=0.161000" 
VARIABLES = "x"  "y"          "phi" 
ZONE N=40501, E=40000, F=FEPOINT, ET=QUADRILATERAL
0.000000000000000e+00 0.000000000000000e+00  9.728525156262677e-01 
1.000000000000000e-02 0.000000000000000e+00  9.728495286907746e-01 
2.000000000000000e-02 0.000000000000000e+00  9.728405909630664e-01 
3.000000000000000e-02 0.000000000000000e+00  9.728257732721093e-01 
4.000000000000000e-02 0.000000000000000e+00  9.728051986026156e-01 
5.000000000000000e-02 0.000000000000000e+00  9.727790446894956e-01 
6.000000000000000e-02 0.000000000000000e+00  9.727474934179252e-01 
7.000000000000001e-02 0.000000000000000e+00  9.727100487218363e-01 
8.000000000000000e-02 0.000000000000000e+00  9.726575360983730e-01 
9.000000000000000e-02 0.000000000000000e+00  9.724782545130535e-01 
1.000000000000000e-01 0.000000000000000e+00  9.709124307348327e-01 
1.100000000000000e-01 0.000000000000000e+00  9.579993364286444e-01 
1.200000000000000e-01 0.000000000000000e+00  8.992055833639270e-01 
1.300000000000000e-01 0.000000000000000e+00  7.561100604704336e-01 
1.400000000000000e-01 0.000000000000000e+00  5.402406832294550e-01 
1.500000000000000e-01 0.000000000000000e+00  3.151491873927451e-01 
1.600000000000000e-01 0.000000000000000e+00  1.490515522397413e-01 
1.700000000000000e-01 0.000000000000000e+00  6.640759224019832e-02 
1.800000000000000e-01 0.000000000000000e+00  4.091781141831215e-02 
1.900000000000000e-01 0.000000000000000e+00  3.632313619665811e-02 
2.000000000000000e-01 0.000000000000000e+00  3.720774471850858e-02 
2.100000000000000e-01 0.000000000000000e+00  4.528066245679159e-02 
2.200000000000000e-01 0.000000000000000e+00  8.017456647694178e-02 
2.300000000000000e-01 0.000000000000000e+00  1.782129958525713e-01 
2.400000000000000e-01 0.000000000000000e+00  3.570120338606740e-01 
2.500000000000000e-01 0.000000000000000e+00  5.833358459109405e-01 
2.600000000000000e-01 0.000000000000000e+00  7.880517516456315e-01 
2.700000000000000e-01 0.000000000000000e+00  9.149434111454821e-01 
2.800000000000000e-01 0.000000000000000e+00  9.622674591140559e-01 
2.900000000000000e-01 0.000000000000000e+00  9.711860617930034e-01 
3.000000000000000e-01 0.000000000000000e+00  9.716504794293652e-01 
3.100000000000000e-01 0.000000000000000e+00  9.711025483108208e-01 
3.200000000000000e-01 0.000000000000000e+00  9.704525833853058e-01 
3.300000000000000e-01 0.000000000000000e+00  9.697973196610215e-01 
3.400000000000000e-01 0.000000000000000e+00  9.691484795506083e-01 
3.500000000000000e-01 0.000000000000000e+00  9.685064501826950e-01 
3.600000000000000e-01 0.000000000000000e+00  9.678648339960816e-01 
3.700000000000000e-01 0.000000000000000e+00  9.671826101681249e-01 
3.800000000000000e-01 0.000000000000000e+00  9.661622154966779e-01 
3.900000000000000e-01 0.000000000000000e+00  9.627135934817687e-01 
4.000000000000000e-01 0.000000000000000e+00  9.457999733434327e-01 
4.100000000000000e-01 0.000000000000000e+00  8.841948825476106e-01 
4.200000000000000e-01 0.000000000000000e+00  7.434428530245510e-01 
4.300000000000000e-01 0.000000000000000e+00  5.303410505266688e-01 
4.400000000000000e-01 0.000000000000000e+00  3.029986474686755e-01 
4.500000000000000e-01 0.000000000000000e+00  1.326808732979119e-01 
4.600000000000000e-01 0.000000000000000e+00  5.074050051558018e-02 
4.700000000000000e-01 0.000000000000000e+00  2.942520548421898e-02 
4.800000000000000e-01 0.000000000000000e+00  2.677609569379127e-02 
4.900000000000000e-01 0.000000000000000e+00  2.670261831312861e-02 
5.000000000000000e-01 0.000000000000000e+00  2.684582689903642e-02 
5.100000000000000e-01 0.000000000000000e+00  2.699593824594374e-02 
5.200000000000000e-01 0.000000000000000e+00  2.713365646094036e-02 
5.300000000000000e-01 0.000000000000000e+00  2.725620915242453e-02 
5.400000000000000e-01 0.000000000000000e+00  2.736256573257951e-02 
5.500000000000000e-01 0.000000000000000e+00  2.745204783659611e-02 
5.600000000000001e-01 0.000000000000000e+00  2.752416814377391e-02 
5.700000000000001e-01 0.000000000000000e+00  2.757859200641036e-02 
5.800000000000000e-01 0.000000000000000e+00  2.761510879531102e-02 
5.900000000000000e-01 0.000000000000000e+00  2.763360069446360e-02 
6.000000000000000e-01 0.000000000000000e+00  2.763400838519963e-02 
6.100000000000000e-01 0.000000000000000e+00  2.761629502391514e-02 
6.200000000000000e-01 0.000000000000000e+00  2.758041051860522e-02 
6.300000000000000e-01 0.000000000000000e+00  2.752625850328922e-02 
6.400000000000000e-01 0.000000000000000e+00  2.745366870604220e-02 
6.500000000000000e-01 0.000000000000000e+00  2.736237838273682e-02 
6.600000000000000e-01 0.000000000000000e+00  2.725203036174402e-02 
6.700000000000000e-01 0.000000000000000e+00  2.712223540091499e-02 
6.800000000000000e-01 0.000000000000000e+00  2.697307551634174e-02 
6.900000000000001e-01 0.000000000000000e+00  2.680984164403637e-02 
7.000000000000001e-01 0.000000000000000e+00  2.669412452404089e-02 
7.100000000000000e-01 0.000000000000000e+00  2.733939753896839e-02 
7.200000000000000e-01 0.000000000000000e+00  3.547662593728033e-02 
7.300000000000000e-01 0.000000000000000e+00  8.050675310811654e-02 
7.400000000000000e-01 0.000000000000000e+00  2.051755211872526e-01 
7.500000000000000e-01 0.000000000000000e+00  4.096852095313156e-01 
7.600000000000000e-01 0.000000000000000e+00  6.379673667875954e-01 
7.700000000000000e-01 0.000000000000000e+00  8.194702961867878e-01 
7.800000000000000e-01 0.000000000000000e+00  9.193792423048991e-01 
7.900000000000000e-01 0.000000000000000e+00  9.548915109389037e-01 
8.000000000000000e-01 0.000000000000000e+00  9.630615934774761e-01 
8.100000000000001e-01 0.000000000000000e+00  9.646002949803526e-01 
8.200000000000001e-01 0.000000000000000e+00  9.649773384262984e-01 
8.300000000000001e-01 0.000000000000000e+00  9.651319993262331e-01 
8.400000000000000e-01 0.000000000000000e+00  9.652063081266526e-01 
8.500000000000000e-01 0.000000000000000e+00  9.652226243600657e-01 
8.600000000000000e-01 0.000000000000000e+00  9.651849538571630e-01 
8.700000000000000e-01 0.000000000000000e+00  9.650935599488899e-01 
8.800000000000000e-01 0.000000000000000e+00  9.649470104543397e-01 
8.900000000000000e-01 0.000000000000000e+00  9.647423093158494e-01 
9.000000000000000e-01 0.000000000000000e+00  9.644745336817806e-01 
9.100000000000000e-01 0.000000000000000e+00  9.641356479787213e-01 
9.200000000000000e-01 0.000000000000000e+00  9.637092053292932e-01 
9.300000000000000e-01 0.000000000000000e+00  9.631402065796844e-01 
9.400000000000001e-01 0.000000000000000e+00  9.621534652360969e-01 
9.500000000000001e-01 0.000000000000000e+00  9.592154351315665e-01 
9.600000000000000e-01 0.000000000000000e+00  9.469380277294396e-01 
9.700000000000000e-01 0.000000000000000e+00  9.024821361143536e-01 
9.800000000000000e-01 0.000000000000000e+00  7.921042728684959e-01 
9.900000000000000e-01 0.000000000000000e+00  6.059379225961685e-01 
1.000000000000000e+00 0.000000000000000e+00  3.818683736923288e-01 
1.010000000000000e+00 0.000000000000000e+00  1.871018946312665e-01 
1.020000000000000e+00 0.000000000000000e+00  7.192423392111087e-02 
1.030000000000000e+00 0.000000000000000e+00  3.240035825173641e-02 
1.040000000000000e+00 0.000000000000000e+00  2.602528963628762e-02 
1.050000000000000e+00 0.000000000000000e+00  2.587481910854028e-02 
1.060000000000000e+00 0.000000000000000e+00  2.632858436494729e-02 
1.070000000000000e+00 0.000000000000000e+00  2.681151751059280e-02 
1.080000000000000e+00 0.000000000000000e+00  2.726072662907703e-02 
1.090000000000000e+00 0.000000000000000e+00  2.766308508147250e-02 
1.100000000000000e+00 0.000000000000000e+00  2.801264000242861e-02 
1.110000000000000e+00 0.000000000000000e+00  2.830560197126364e-02 
1.120000000000000e+00 0.000000000000000e+00  2.853974712154604e-02 
1.130000000000000e+00 0.000000000000000e+00  2.871437074577980e-02 
1.140000000000000e+00 0.000000000000000e+00  2.883027354075150e-02 
1.150000000000000e+00 0.000000000000000e+00  2.888968281286278e-02 
1.160000000000000e+00 0.000000000000000e+00  2.889609822646940e-02 
1.170000000000000e+00 0.000000000000000e+00  2.885407540926025e-02 
1.180000000000000e+00 0.000000000000000e+00  2.876897050367714e-02 
1.190000000000000e+00 0.000000000000000e+00  2.864667141595939e-02 
1.200000000000000e+00 0.000000000000000e+00  2.849333960971510e-02 
1.210000000000000e+00 0.000000000000000e+00  2.831518139187100e-02 
1.220000000000000e+00 0.000000000000000e+00  2.811826130400813e-02 
1.230000000000000e+00 0.000000000000000e+00  2.790836386698544e-02 
1.240000000000000e+00 0.000000000000000e+00  2.769090456901011e-02 
1.250000000000000e+00 0.000000000000000e+00  2.747088761186168e-02 
1.260000000000000e+00 0.000000000000000e+00  2.725290742395129e-02 
1.270000000000000e+00 0.000000000000000e+00  2.704120909947287e-02 
1.280000000000000e+00 0.000000000000000e+00  2.683994600965704e-02 
1.290000000000000e+00 0.000000000000000e+00  2.665508515133873e-02 
1.300000000000000e+00 0.000000000000000e+00  2.651337536360335e-02 
1.310000000000000e+00 0.000000000000000e+00  2.668243624925243e-02 
1.320000000000000e+00 0.000000000000000e+00  3.005072418652450e-02 
1.330000000000000e+00 0.000000000000000e+00  5.464635205009004e-02 
1.340000000000000e+00 0.000000000000000e+00  1.424970812901254e-01 
1.350000000000000e+00 0.000000000000000e+00  3.157223334736508e-01 
1.360000000000000e+00 0.000000000000000e+00  5.379896789596501e-01 
1.370000000000000e+00 0.000000000000000e+00  7.383175733504997e-01 
1.380000000000000e+00 0.000000000000000e+00  8.611778290379094e-01 
1.390000000000000e+00 0.000000000000000e+00  8.930105663178257e-01 
1.400000000000000e+00 0.000000000000000e+00  8.366773484314269e-01 
1.410000000000000e+00 0.000000000000000e+00  6.891920529652340e-01 
1.420000000000000e+00 0.000000000000000e+00  4.760205284166941e-01 
1.430000000000000e+00 0.000000000000000e+00  2.620632942932139e-01 
1.440000000000000e+00 0.000000000000000e+00  1.126435877532676e-01 
1.450000000000000e+00 0.000000000000000e+00  4.640158284212367e-02 
1.460000000000000e+00 0.000000000000000e+00  3.014108391986132e-02 
1.470000000000000e+00 0.000000000000000e+00  2.782516901431981e-02 
1.480000000000000e+00 0.000000000000000e+00  2.744414604254422e-02 
1.490000000000000e+00 0.000000000000000e+00  2.727467896151528e-02 
1.500000000000000e+00 0.000000000000000e+00  2.715234322162366e-02 
1.510000000000000e+00 0.000000000000000e+00  2.706170168111904e-02 
1.520000000000000e+00 0.000000000000000e+00  2.700064708600605e-02 
1.530000000000000e+00 0.000000000000000e+00  2.696854637839618e-02 
1.540000000000000e+00 0.000000000000000e+00  2.696519859103396e-02 
1.550000000000000e+00 0.000000000000000e+00  2.699076103798458e-02 
1.560000000000000e+00 0.000000000000000e+00  2.704608596548395e-02 
1.570000000000000e+00 0.000000000000000e+00  2.713706644938543e-02 
1.580000000000000e+00 0.000000000000000e+00  2.732883212693493e-02 
1.590000000000000e+00 0.000000000000000e+00  2.839054793377431e-02 
1.600000000000000e+00 0.000000000000000e+00  3.726139441551621e-02 
1.610000000000000e+00 0.000000000000000e+00  8.324781673966729e-02 
1.620000000000000e+00 0.000000000000000e+00  2.090921358404380e-01 
1.630000000000000e+00 0.000000000000000e+00  4.159329844792623e-01 
1.640000000000000e+00 0.000000000000000e+00  6.470772435936166e-01 
1.650000000000000e+00 0.000000000000000e+00  8.294275542240841e-01 
1.660000000000000e+00 0.000000000000000e+00  9.269817749035288e-01 
1.670000000000000e+00 0.000000000000000e+00  9.592535509711607e-01 
1.680000000000000e+00 0.000000000000000e+00  9.654373970874146e-01 
1.690000000000000e+00 0.000000000000000e+00  9.643562611892340e-01 
1.700000000000000e+00 0.000000000000000e+00  9.518749385649127e-01 
1.710000000000000e+00 0.000000000000000e+00  8.997283122212242e-01 
1.720000000000000e+00 0.000000000000000e+00  7.702916240803936e-01 
1.730000000000000e+00 0.000000000000000e+00  5.638284772819112e-01 
1.740000000000000e+00 0.000000000000000e+00  3.347215086411111e-01 
1.750000000000000e+00 0.000000000000000e+00  1.553503320100644e-01 
1.760000000000000e+00 0.000000000000000e+00  6.240596516166225e-02 
1.770000000000000e+00 0.000000000000000e+00  3.449531747799203e-02 
1.780000000000000e+00 0.000000000000000e+00  3.009670627254322e-02 
1.790000000000000e+00 0.000000000000000e+00  2.990341009646824e-02 
1.800000000000000e+00 0.000000000000000e+00  3.022623687058949e-02 
1.810000000000000e+00 0.000000000000000e+00  3.063791522021351e-02 
1.820000000000000e+00 0.000000000000000e+00  3.109696362688498e-02 
1.830000000000000e+00 0.000000000000000e+00  3.160491985436659e-02 
1.840000000000000e+00 0.000000000000000e+00  3.217738620377700e-02 
1.850000000000000e+00 0.000000000000000e+00  3.289820017142773e-02 
1.860000000000000e+00 0.000000000000000e+00  3.436309262776765e-02 
1.870000000000000e+00 0.000000000000000e+00  4.051412775864450e-02 
1.880000000000000e+00 0.000000000000000e+00  6.869696915690744e-02 
1.890000000000000e+00 0.000000000000000e+00  1.555889811713917e-01 
1.900000000000000e+00 0.000000000000000e+00  3.254744340586561e-01 
1.910000000000000e+00 0.000000000000000e+00  5.518639482939438e-01 
1.920000000000000e+00 0.000000000000000e+00  7.661605401792945e-01 
1.930000000000000e+00 0.000000000000000e+00  9.057610905231970e-01 
1.940000000000000e+00 0.000000000000000e+00  9.610205196544566e-01 
1.950000000000000e+00 0.000000000000000e+00  9.720961917341419e-01 
1.960000000000000e+00 0.000000000000000e+00  9.729660488265771e-01 
1.970000000000000e+00 0.000000000000000e+00  9.726715040953497e-01 
1.980000000000000e+00 0.000000000000000e+00  9.722611931563901e-01 
1.990000000000000e+00 0.000000000000000e+00  9.718273640110326e-01 
2.000000000000000e+00 0.000000000000000e+00  9.713768530859951e-01 
2.010000000000000e+00 0.000000000000000e+00  9.709077469933355e-01 
2.020000000000000e+00 0.000000000000000e+00  9.704164936485622e-01 
2.030000000000000e+00 0.000000000000000e+00  9.698984922586469e-01 
2.040000000000000e+00 0.000000000000000e+00  9.693479350803414e-01 
2.050000000000000e+00 0.000000000000000e+00  9.687574653548344e-01 
2.060000000000000e+00 0.000000000000000e+00  9.681176561267781e-01 
2.070000000000000e+00 0.000000000000000e+00  9.674160745625208e-01 
2.080000000000000e+00 0.000000000000000e+00  9.666345190576181e-01 
2.090000000000000e+00 0.000000000000000e+00  9.657347736552625e-01 
2.100000000000000e+00 0.000000000000000e+00  9.645672856913047e-01 
2.110000000000000e+00 0.000000000000000e+00  9.622924657006786e-01 
2.120000000000000e+00 0.000000000000000e+00  9.543522569472838e-01 
2.130000000000000e+00 0.000000000000000e+00  9.235707884055029e-01 
2.140000000000000e+00 0.000000000000000e+00  8.366566102013790e-01 
2.150000000000000e+00 0.000000000000000e+00  6.719281364554074e-01 
2.160000000000000e+00 0.000000000000000e+00  4.524627504592011e-01 
2.170000000000000e+00 0.000000000000000e+00  2.407646171837462e-01 
2.180000000000000e+00 0.000000000000000e+00  9.789300017874515e-02 
2.190000000000000e+00 0.000000000000000e+00  3.859037927353490e-02 
2.200000000000000e+00 0.000000000000000e+00  2.640324620317699e-02 
2.210000000000000e+00 0.000000000000000e+00  2.563393956498948e-02 
2.220000000000000e+00 0.000000000000000e+00  2.616448663735886e-02 
2.230000000000000e+00 0.000000000000000e+00  2.681232061666851e-02 
2.240000000000000e+00 0.000000000000000e+00  2.746066837547112e-02 
2.250000000000000e+00 0.000000000000000e+00  2.809026214932370e-02 
2.260000000000000e+00 0.000000000000000e+00  2.869422819723143e-02 
2.270000000000000e+00 0.000000000000000e+00  2.926821023300131e-02 
2.280000000000000e+00 0.000000000000000e+00  2.980915476039721e-02 
2.290000000000000e+00 0.000000000000000e+00  3.031520539270124e-02 
2.300000000000000e+00 0.000000000000000e+00  3.078578980781023e-02 
2.310000000000000e+00 0.000000000000000e+00  3.122169566726904e-02 
2.320000000000000e+00 0.000000000000000e+00  3.162509235256727e-02 
2.330000000000000e+00 0.000000000000000e+00  3.199948925255251e-02 
2.340000000000000e+00 0.000000000000000e+00  3.234963872951242e-02 
2.350000000000000e+00 0.000000000000000e+00  3.268140297728254e-02 
2.360000000000000e+00 0.000000000000000e+00  3.300161118780362e-02 
2.370000000000000e+00 0.000000000000000e+00  3.331793734332290e-02 
2.380000000000000e+00 0.000000000000000e+00  3.363883122330114e-02 
2.390000000000000e+00 0.000000000000000e+00  3.397354190999640e-02 
2.400000000000000e+00 0.000000000000000e+00  3.433231619266519e-02 
2.410000000000000e+00 0.000000000000000e+00  3.472714244326206e-02 
2.420000000000000e+00 0.000000000000000e+00  3.517535327586511e-02 
2.430000000000000e+00 0.000000000000000e+00  3.572136893559906e-02 
2.440000000000000e+00 0.000000000000000e+00  3.657580153070181e-02 
2.450000000000000e+00 0.000000000000000e+00  3.896695187816462e-02 
2.460000000000000e+00 0.000000000000000e+00  4.928423391306319e-02 
2.470000000000000e+00 0.000000000000000e+00  8.912441120751169e-02 
2.480000000000000e+00 0.000000000000000e+00  1.935536086797294e-01 
2.490000000000000e+00 0.000000000000000e+00  3.762860675448590e-01 
2.500000000000000e+00 0.000000000000000e+00  6.018977283850283e-01 
2.510000000000000e+00 0.000000000000000e+00  8.021710057237321e-01 
2.520000000000000e+00 0.000000000000000e+00  9.233650223754151e-01 
2.530000000000000e+00 0.000000000000000e+00  9.663385975791837e-01 
2.540000000000000e+00 0.000000000000000e+00  9.736274869156520e-01 
2.550000000000000e+00 0.000000000000000e+00  9.739242111277440e-01 
2.560000000000000e+00 0.000000000000000e+00  9.735244734474026e-01 
2.570000000000000e+00 0.000000000000000e+00  9.730742332647949e-01 
2.580000000000000e+00 0.000000000000000e+00  9.726366171173026e-01 
2.590000000000000e+00 0.000000000000000e+00  9.722210202404653e-01 
2.600000000000000e+00 0.000000000000000e+00  9.718304552641768e-01 
2.610000000000000e+00 0.000000000000000e+00  9.714665679974481e-01 
2.620000000000000e+00 0.000000000000000e+00  9.711302874392357e-01 
2.630000000000000e+00 0.000000000000000e+00  9.708218943902134e-01 
2.640000000000000e+00 0.000000000000000e+00  9.705410217087378e-01 
2.650000000000000e+00 0.000000000000000e+00  9.702866649311883e-01 
2.660000000000000e+00 0.000000000000000e+00  9.700572199941746e-01 
2.670000000000000e+00 0.000000000000000e+00  9.698505494131121e-01 
2.680000000000000e+00 0.000000000000000e+00  9.696640731770592e-01 
2.690000000000000e+00 0.000000000000000e+00  9.694948778500599e-01 
2.700000000000000e+00 0.000000000000000e+00  9.693398358684091e-01 
2.710000000000000e+00 0.000000000000000e+00  9.691957265473916e-01 
2.720000000000000e+00 0.000000000000000e+00  9.690593506774494e-01 
2.730000000000000e+00 0.000000000000000e+00  9.689276315538287e-01 
2.740000000000000e+00 0.000000000000000e+00  9.687976965588918e-01 
2.750000000000000e+00 0.000000000000000e+00  9.686669347239503e-01 
2.760000000000000e+00 0.000000000000000e+00  9.685330268090642e-01 
2.770000000000000e+00 0.000000000000000e+00  9.683939451883576e-01 
2.780000000000000e+00 0.000000000000000e+00  9.682479210478188e-01 
2.790000000000000e+00 0.000000000000000e+00  9.680933754385478e-01 
2.800000000000000e+00 0.000000000000000e+00  9.679288036142107e-01 
2.810000000000000e+00 0.000000000000000e+00  9.677525483190087e-01 
2.820000000000000e+00 0.000000000000000e+00  9.675619672127199e-01 
2.830000000000000e+00 0.000000000000000e+00  9.673480309373839e-01 
2.840000000000000e+00 0.000000000000000e+00  9.670537814108189e-01 
2.850000000000000e+00 0.000000000000000e+00  9.662534220582160e-01 
2.860000000000000e+00 0.000000000000000e+00  9.619570690061837e-01 
2.870000000000000e+00 0.000000000000000e+00  9.394643361935932e-01 
2.880000000000000e+00 0.000000000000000e+00  8.631687725377786e-01 
2.890000000000000e+00 0.000000000000000e+00  7.039760186538766e-01 
2.900000000000000e+00 0.000000000000000e+00  4.821315536894467e-01 
2.910000000000000e+00 0.000000000000000e+00  2.636373108686932e-01 
2.920000000000000e+00 0.000000000000000e+00  1.135685675613284e-01 
2.930000000000000e+00 0.000000000000000e+00  4.808188807253193e-02 
2.940000000000000e+00 0.000000000000000e+00  3.235139382774170e-02 
2.950000000000000e+00 0.000000000000000e+00  3.067901820134535e-02 
2.960000000000000e+00 0.000000000000000e+00  3.117528160295950e-02 
2.970000000000000e+00 0.000000000000000e+00  3.199597610222375e-02 
2.980000000000000e+00 0.000000000000000e+00  3.303889230169177e-02 
2.990000000000000e+00 0.000000000000000e+00  3.506473416832746e-02 
3.000000000000000e+00 0.000000000000000e+00  4.293629227888399e-02 
3.010000000000000e+00 0.000000000000000e+00  7.606232611915573e-02 
3.020000000000000e+00 0.000000000000000e+00  1.710709604771964e-01 
3.030000000000000e+00 0.000000000000000e+00  3.476268732263024e-01 
3.040000000000000e+00 0.000000000000000e+00  5.746506513178753e-01 
3.050000000000000e+00 0.000000000000000e+00  7.831125142780224e-01 
3.060000000000000e+00 0.000000000000000e+00  9.142556785044665e-01 
3.070000000000000e+00 0.000000000000000e+00  9.635406045591149e-01 
3.080000000000000e+00 0.000000000000000e+00  9.726351601800298e-01 
3.090000000000000e+00 0.000000000000000e+00  9.731085402413080e-01 
3.100000000000000e+00 0.000000000000000e+00  9.726544580968616e-01 
3.110000000000000e+00 0.000000000000000e+00  9.721279864417722e-01 
3.120000000000000e+00 0.000000000000000e+00  9.716112193544600e-01 
3.130000000000000e+00 0.000000000000000e+00  9.711139740367909e-01 
3.140000000000000e+00 0.000000000000000e+00  9.706376023359760e-01 
3.150000000000000e+00 0.000000000000000e+00  9.701815985414727e-01 
3.160000000000000e+00 0.000000000000000e+00  9.697444782514324e-01 
3.170000000000000e+00 0.000000000000000e+00  9.693239622781775e-01 
3.180000000000000e+00 0.000000000000000e+00  9.689170847580206e-01 
3.190000000000000e+00 0.000000000000000e+00  9.685202938256001e-01 
3.200000000000000e+00 0.000000000000000e+00  9.681295428916225e-01 
3.210000000000000e+00 0.000000000000000e+00  9.677402951356785e-01 
3.220000000000000e+00 0.000000000000000e+00  9.673468503233436e-01 
3.230000000000000e+00 0.000000000000000e+00  9.669363514446742e-01 
3.240000000000000e+00 0.000000000000000e+00  9.664417385991185e-01 
3.250000000000000e+00 0.000000000000000e+00  9.653904465022236e-01 
3.260000000000000e+00 0.000000000000000e+00  9.606165589904679e-01 
3.270000000000000e+00 0.000000000000000e+00  9.371892593531735e-01 
3.280000000000000e+00 0.000000000000000e+00  8.597556364760858e-01 
3.290000000000000e+00 0.000000000000000e+00  6.993508064141758e-01 
3.300000000000000e+00 0.000000000000000e+00  4.756052089478006e-01 
3.310000000000000e+00 0.000000000000000e+00  2.547960284389126e-01 
3.320000000000000e+00 0.000000000000000e+00  1.040670003868911e-01 
3.330000000000000e+00 0.000000000000000e+00  4.071811792045442e-02 
3.340000000000000e+00 0.000000000000000e+00  2.706377252756091e-02 
3.350000000000000e+00 0.000000000000000e+00  2.557762751172529e-02 
3.360000000000000e+00 0.000000000000000e+00  2.541475560888130e-02 
3.370000000000000e+00 0.000000000000000e+00  2.535941015617545e-02 
3.380000000000000e+00 0.000000000000000e+00  2.532254388291844e-02 
3.390000000000000e+00 0.000000000000000e+00  2.529758983293625e-02 
3.400000000000000e+00 0.000000000000000e+00  2.528413123543330e-02 
3.410000000000000e+00 0.000000000000000e+00  2.528242192400840e-02 
3.420000000000000e+00 0.000000000000000e+00  2.529389140823180e-02 
3.430000000000000e+00 0.000000000000000e+00  2.533361422586332e-02 
3.440000000000000e+00 0.000000000000000e+00  2.561109577665874e-02 
3.450000000000000e+00 0.000000000000000e+00  2.886998179639073e-02 
3.460000000000000e+00 0.000000000000000e+00  5.383262903349618e-02 
3.470000000000000e+00 0.000000000000000e+00  1.452395853651016e-01 
3.480000000000000e+00 0.000000000000000e+00  3.263667733470804e-01 
3.490000000000000e+00 0.000000000000000e+00  5.584074943352583e-01 
3.500000000000000e+00 0.000000000000000e+00  7.670856535923488e-01 
3.510000000000000e+00 0.000000000000000e+00  8.980216682277279e-01 
3.520000000000000e+00 0.000000000000000e+00  9.513963335576896e-01 
3.530000000000000e+00 0.000000000000000e+00  9.648838632162465e-01 
3.540000000000000e+00 0.000000000000000e+00  9.675840138435152e-01 
3.550000000000000e+00 0.000000000000000e+00  9.684945090245403e-01 
3.560000000000000e+00 0.000000000000000e+00  9.690205225873648e-01 
3.570000000000000e+00 0.000000000000000e+00  9.684369993174341e-01 
3.580000000000000e+00 0.000000000000000e+00  9.600112809117378e-01 
3.590000000000000e+00 0.000000000000000e+00  9.166364002573144e-01 
3.600000000000000e+00 0.000000000000000e+00  7.968717333296085e-01 
3.610000000000000e+00 0.000000000000000e+00  5.956983777450326e-01 
3.620000000000000e+00 0.000000000000000e+00  3.653230364285426e-01 
3.630000000000000e+00 0.000000000000000e+00  1.786571714908583e-01 
3.640000000000000e+00 0.000000000000000e+00  7.568156227407909e-02 
3.650000000000000e+00 0.000000000000000e+00  4.045971677964921e-02 
3.660000000000000e+00 0.000000000000000e+00  3.319231730412218e-02 
3.670000000000000e+00 0.000000000000000e+00  3.202397727263610e-02 
3.680000000000000e+00 0.000000000000000e+00  3.205988946027829e-02 
3.690000000000000e+00 0.000000000000000e+00  3.503785622796198e-02 
3.700000000000000e+00 0.000000000000000e+00  5.472644117884862e-02 
3.710000000000000e+00 0.000000000000000e+00  1.278312813784143e-01 
3.720000000000000e+00 0.000000000000000e+00  2.860197428301069e-01 
3.730000000000000e+00 0.000000000000000e+00  5.091142612987016e-01 
3.740000000000000e+00 0.000000000000000e+00  7.295621431703183e-01 
3.750000000000000e+00 0.000000000000000e+00  8.816367835178519e-01 
3.760000000000000e+00 0.000000000000000e+00  9.492360901557707e-01 
3.770000000000000e+00 0.000000000000000e+00  9.665427150918962e-01 
3.780000000000000e+00 0.000000000000000e+00  9.691522284378929e-01 
3.790000000000000e+00 0.000000000000000e+00  9.694483890739563e-01 
3.800000000000000e+00 0.000000000000000e+00  9.694707190509716e-01 
3.810000000000000e+00 0.000000000000000e+00  9.694583005919315e-01 
3.820000000000000e+00 0.000000000000000e+00  9.694396225503407e-01 
3.830000000000000e+00 0.000000000000000e+00  9.694200932349815e-01 
3.840000000000000e+00 0.000000000000000e+00  9.693983381792243e-01 
3.850000000000000e+00 0.000000000000000e+00  9.693304686598924e-01 
3.860000000000000e+00 0.000000000000000e+00  9.687845663549530e-01 
3.870000000000000e+00 0.000000000000000e+00  9.642142863355232e-01 
3.880000000000000e+00 0.000000000000000e+00  9.374230495535293e-01 
3.890000000000000e+00 0.000000000000000e+00  8.479191211508934e-01 
3.900000000000000e+00 0.000000000000000e+00  6.713567318601708e-01 
3.910000000000000e+00 0.000000000000000e+00  4.405729528365302e-01 
3.920000000000000e+00 0.000000000000000e+00  2.287042925718687e-01 
3.930000000000000e+00 0.000000000000000e+00  9.500383600544730e-02 
3.940000000000000e+00 0.000000000000000e+00  4.254827001256305e-02 
3.950000000000000e+00 0.000000000000000e+00  3.104929464665712e-02 
3.960000000000000e+00 0.000000000000000e+00  2.945289450645467e-02 
3.970000000000000e+00 0.000000000000000e+00  2.918235461542623e-02 
3.980000000000000e+00 0.000000000000000e+00  2.907765477425773e-02 
3.990000000000000e+00 0.000000000000000e+00  2.902178724451654e-02 
4.000000000000000e+00 0.000000000000000e+00  2.900350175265130e-02 
0.000000000000000e+00 1.000000000000000e-02  9.728555748373138e-01 
1.000000000000000e-02 1.000000000000000e-02  9.728525764474961e-01 
2.000000000000000e-02 1.000000000000000e-02  9.728436035824748e-01 
3.000000000000000e-02 1.000000000000000e-02  9.728287246895305e-01 
4.000000000000000e-02 1.000000000000000e-02  9.728080584465264e-01 
5.000000000000000e-02 1.000000000000000e-02  9.727817743010778e-01 
6.000000000000000e-02 1.000000000000000e-02  9.727500260866271e-01 
7.000000000000001e-02 1.000000000000000e-02  9.727121333164914e-01 
8.000000000000000e-02 1.000000000000000e-02  9.726573274911885e-01 
9.000000000000000e-02 1.000000000000000e-02  9.724590571291628e-01 
1.000000000000000e-01 1.000000000000000e-02  9.707265045590447e-01 
1.100000000000000e-01 1.000000000000000e-02  9.568356743819130e-01 
1.200000000000000e-01 1.000000000000000e-02  8.954634482799233e-01 
1.300000000000000e-01 1.000000000000000e-02  7.494272211774112e-01 
1.400000000000000e-01 1.000000000000000e-02  5.324093780271193e-01 
1.500000000000000e-01 1.000000000000000e-02  3.086830159986105e-01 
1.600000000000000e-01 1.000000000000000e-02  1.453532953780971e-01 
1.700000000000000e-01 1.000000000000000e-02  6.505661190750674e-02 
1.800000000000000e-01 1.000000000000000e-02  4.060268175372688e-02 
1.900000000000000e-01 1.000000000000000e-02  3.623500999300393e-02 
2.000000000000000e-01 1.000000000000000e-02  3.706497239014119e-02 
2.100000000000000e-01 1.000000000000000e-02  4.461928122061615e-02 
2.200000000000000e-01 1.000000000000000e-02  7.756143284939587e-02 
2.300000000000000e-01 1.000000000000000e-02  1.716283218081785e-01 
2.400000000000000e-01 1.000000000000000e-02  3.459863556327808e-01 
2.500000000000000e-01 1.000000000000000e-02  5.702152327370139e-01 
2.600000000000000e-01 1.000000000000000e-02  7.769339496183079e-01 
2.700000000000000e-01 1.000000000000000e-02  9.087793688396327e-01 
2.800000000000000e-01 1.000000000000000e-02  9.603573754051571e-01 
2.900000000000000e-01 1.000000000000000e-02  9.708366895096125e-01 
3.000000000000000e-01 1.000000000000000e-02  9.715845325103989e-01 
3.100000000000000e-01 1.000000000000000e-02  9.710783405423127e-01 
3.200000000000000e-01 1.000000000000000e-02  9.704351206951167e-01 
3.300000000000000e-01 1.000000000000000e-02  9.697814533337686e-01 
3.400000000000000e-01 1.000000000000000e-02  9.691337775530557e-01 
3.500000000000000e-01 1.000000000000000e-02  9.684934209330841e-01 
3.600000000000000e-01 1.000000000000000e-02  9.678544704586646e-01 
3.700000000000000e-01 1.000000000000000e-02  9.671779888624721e-01 