TITLE ="t=0.161000" 
VARIABLES = "x"  "y"          "phi" 
ZONE N=40501, E=40000, F=FEPOINT, ET=QUADRILATERAL
0.000000000000000e+00 0.000000000000000e+00  8.707787342405819e-01 
1.000000000000000e-02 0.000000000000000e+00  8.708050567257504e-01 
2.000000000000000e-02 0.000000000000000e+00  8.708834628776886e-01 
3.000000000000000e-02 0.000000000000000e+00  8.710123036066308e-01 
4.000000000000000e-02 0.000000000000000e+00  8.711889428551585e-01 
5.000000000000000e-02 0.000000000000000e+00  8.714099140262759e-01 
6.000000000000000e-02 0.000000000000000e+00  8.716711164157324e-01 
7.000000000000001e-02 0.000000000000000e+00  8.719680330386270e-01 
8.000000000000000e-02 0.000000000000000e+00  8.722959507219817e-01 
9.000000000000000e-02 0.000000000000000e+00  8.726501651447224e-01 
1.000000000000000e-01 0.000000000000000e+00  8.730261571270286e-01 
1.100000000000000e-01 0.000000000000000e+00  8.734197311646026e-01 
1.200000000000000e-01 0.000000000000000e+00  8.738271121761404e-01 
1.300000000000000e-01 0.000000000000000e+00  8.742450009823756e-01 
1.400000000000000e-01 0.000000000000000e+00  8.746705926561449e-01 
1.500000000000000e-01 0.000000000000000e+00  8.751015643087333e-01 
1.600000000000000e-01 0.000000000000000e+00  8.755360400721580e-01 
1.700000000000000e-01 0.000000000000000e+00  8.759725411443900e-01 
1.800000000000000e-01 0.000000000000000e+00  8.764099280405049e-01 
1.900000000000000e-01 0.000000000000000e+00  8.768473409345513e-01 
2.000000000000000e-01 0.000000000000000e+00  8.772841424656700e-01 
2.100000000000000e-01 0.000000000000000e+00  8.777198658440023e-01 
2.200000000000000e-01 0.000000000000000e+00  8.781541696789794e-01 
2.300000000000000e-01 0.000000000000000e+00  8.785867997365733e-01 
2.400000000000000e-01 0.000000000000000e+00  8.790175568073606e-01 
2.500000000000000e-01 0.000000000000000e+00  8.794462689519106e-01 
2.600000000000000e-01 0.000000000000000e+00  8.798727654162442e-01 
2.700000000000000e-01 0.000000000000000e+00  8.802968481896740e-01 
2.800000000000000e-01 0.000000000000000e+00  8.807182550204620e-01 
2.900000000000000e-01 0.000000000000000e+00  8.811366038526783e-01 
3.000000000000000e-01 0.000000000000000e+00  8.815513015443129e-01 
3.100000000000000e-01 0.000000000000000e+00  8.819613864838836e-01 
3.200000000000000e-01 0.000000000000000e+00  8.823652498990479e-01 
3.300000000000000e-01 0.000000000000000e+00  8.827601338991786e-01 
3.400000000000000e-01 0.000000000000000e+00  8.831412158338559e-01 
3.500000000000000e-01 0.000000000000000e+00  8.834999204760364e-01 
3.600000000000000e-01 0.000000000000000e+00  8.838207813184109e-01 
3.700000000000000e-01 0.000000000000000e+00  8.840755621313666e-01 
3.800000000000000e-01 0.000000000000000e+00  8.842121930256642e-01 
3.900000000000000e-01 0.000000000000000e+00  8.841339123652046e-01 
4.000000000000000e-01 0.000000000000000e+00  8.836600912570134e-01 
4.100000000000000e-01 0.000000000000000e+00  8.824536259478178e-01 
4.200000000000000e-01 0.000000000000000e+00  8.798904836633543e-01 
4.300000000000000e-01 0.000000000000000e+00  8.748402263262554e-01 
4.400000000000000e-01 0.000000000000000e+00  8.653447419126643e-01 
4.500000000000000e-01 0.000000000000000e+00  8.482826584265140e-01 
4.600000000000000e-01 0.000000000000000e+00  8.193473541568287e-01 
4.700000000000000e-01 0.000000000000000e+00  7.739076612048510e-01 
4.800000000000000e-01 0.000000000000000e+00  7.090355289339270e-01 
4.900000000000000e-01 0.000000000000000e+00  6.258962064499677e-01 
5.000000000000000e-01 0.000000000000000e+00  5.308083374988496e-01 
5.100000000000000e-01 0.000000000000000e+00  4.338566210507478e-01 
5.200000000000000e-01 0.000000000000000e+00  3.455767849177024e-01 
5.300000000000000e-01 0.000000000000000e+00  2.734906735961879e-01 
5.400000000000000e-01 0.000000000000000e+00  2.202876467601373e-01 
5.500000000000000e-01 0.000000000000000e+00  1.843179602300355e-01 
5.600000000000001e-01 0.000000000000000e+00  1.616006838141901e-01 
5.700000000000001e-01 0.000000000000000e+00  1.478701701750877e-01 
5.800000000000000e-01 0.000000000000000e+00  1.397183504830666e-01 
5.900000000000000e-01 0.000000000000000e+00  1.348385901776210e-01 
6.000000000000000e-01 0.000000000000000e+00  1.318202277131256e-01 
6.100000000000000e-01 0.000000000000000e+00  1.298547285760496e-01 
6.200000000000000e-01 0.000000000000000e+00  1.285026972413799e-01 
6.300000000000000e-01 0.000000000000000e+00  1.275457502406113e-01 
6.400000000000000e-01 0.000000000000000e+00  1.269070982319578e-01 
6.500000000000000e-01 0.000000000000000e+00  1.266232769261231e-01 
6.600000000000000e-01 0.000000000000000e+00  1.268597856311149e-01 
6.700000000000000e-01 0.000000000000000e+00  1.279764089536768e-01 
6.800000000000000e-01 0.000000000000000e+00  1.306610918613469e-01 
6.900000000000001e-01 0.000000000000000e+00  1.361577682999112e-01 
7.000000000000001e-01 0.000000000000000e+00  1.465885808919503e-01 
7.100000000000000e-01 0.000000000000000e+00  1.652577144410350e-01 
7.200000000000000e-01 0.000000000000000e+00  1.965793152029018e-01 
7.300000000000000e-01 0.000000000000000e+00  2.450705761714564e-01 
7.400000000000000e-01 0.000000000000000e+00  3.132169271568564e-01 
7.500000000000000e-01 0.000000000000000e+00  3.991276474058186e-01 
7.600000000000000e-01 0.000000000000000e+00  4.956974195368936e-01 
7.700000000000000e-01 0.000000000000000e+00  5.923045717395617e-01 
7.800000000000000e-01 0.000000000000000e+00  6.783801898532668e-01 
7.900000000000000e-01 0.000000000000000e+00  7.469173572622487e-01 
8.000000000000000e-01 0.000000000000000e+00  7.960582750499162e-01 
8.100000000000001e-01 0.000000000000000e+00  8.282165819263870e-01 
8.200000000000001e-01 0.000000000000000e+00  8.477929258871320e-01 
8.300000000000001e-01 0.000000000000000e+00  8.591126609197182e-01 
8.400000000000000e-01 0.000000000000000e+00  8.654354158213523e-01 
8.500000000000000e-01 0.000000000000000e+00  8.688561470581576e-01 
8.600000000000000e-01 0.000000000000000e+00  8.705725641291656e-01 
8.700000000000000e-01 0.000000000000000e+00  8.711701508411170e-01 
8.800000000000000e-01 0.000000000000000e+00  8.708000821774381e-01 
8.900000000000000e-01 0.000000000000000e+00  8.692297562774847e-01 
9.000000000000000e-01 0.000000000000000e+00  8.657662361564729e-01 
9.100000000000000e-01 0.000000000000000e+00  8.590516301268594e-01 
9.200000000000000e-01 0.000000000000000e+00  8.467620260476574e-01 
9.300000000000000e-01 0.000000000000000e+00  8.253735246494383e-01 
9.400000000000001e-01 0.000000000000000e+00  7.904051249514137e-01 
9.500000000000001e-01 0.000000000000000e+00  7.376631151057557e-01 
9.600000000000000e-01 0.000000000000000e+00  6.654855530521027e-01 
9.700000000000000e-01 0.000000000000000e+00  5.768669472129836e-01 
9.800000000000000e-01 0.000000000000000e+00  4.798085284752452e-01 
9.900000000000000e-01 0.000000000000000e+00  3.851713036240839e-01 
1.000000000000000e+00 0.000000000000000e+00  3.029869317146850e-01 
1.010000000000000e+00 0.000000000000000e+00  2.392334836326875e-01 
1.020000000000000e+00 0.000000000000000e+00  1.947671110016429e-01 
1.030000000000000e+00 0.000000000000000e+00  1.666344024944939e-01 
1.040000000000000e+00 0.000000000000000e+00  1.504808685429871e-01 
1.050000000000000e+00 0.000000000000000e+00  1.424946724433990e-01 
1.060000000000000e+00 0.000000000000000e+00  1.402907442170339e-01 
1.070000000000000e+00 0.000000000000000e+00  1.430850248651782e-01 
1.080000000000000e+00 0.000000000000000e+00  1.516811141596534e-01 
1.090000000000000e+00 0.000000000000000e+00  1.684748797768490e-01 
1.100000000000000e+00 0.000000000000000e+00  1.972668624943257e-01 
1.110000000000000e+00 0.000000000000000e+00  2.423681039153177e-01 
1.120000000000000e+00 0.000000000000000e+00  3.066669407236841e-01 
1.130000000000000e+00 0.000000000000000e+00  3.892504229730495e-01 
1.140000000000000e+00 0.000000000000000e+00  4.841116053424664e-01 
1.150000000000000e+00 0.000000000000000e+00  5.812097203611575e-01 
1.160000000000000e+00 0.000000000000000e+00  6.696796347658718e-01 
1.170000000000000e+00 0.000000000000000e+00  7.415265081984287e-01 
1.180000000000000e+00 0.000000000000000e+00  7.937907082324551e-01 
1.190000000000000e+00 0.000000000000000e+00  8.281958712993992e-01 
1.200000000000000e+00 0.000000000000000e+00  8.489957478977732e-01 
1.210000000000000e+00 0.000000000000000e+00  8.607051931889405e-01 
1.220000000000000e+00 0.000000000000000e+00  8.668580002470198e-01 
1.230000000000000e+00 0.000000000000000e+00  8.697835141091746e-01 
1.240000000000000e+00 0.000000000000000e+00  8.708618695359994e-01 
1.250000000000000e+00 0.000000000000000e+00  8.708464884329690e-01 
1.260000000000000e+00 0.000000000000000e+00  8.700991339651466e-01 
1.270000000000000e+00 0.000000000000000e+00  8.687191514730378e-01 
1.280000000000000e+00 0.000000000000000e+00  8.665833660834591e-01 
1.290000000000000e+00 0.000000000000000e+00  8.633071164457961e-01 
1.300000000000000e+00 0.000000000000000e+00  8.581232704095804e-01 
1.310000000000000e+00 0.000000000000000e+00  8.496734353989721e-01 
1.320000000000000e+00 0.000000000000000e+00  8.357403409703732e-01 
1.330000000000000e+00 0.000000000000000e+00  8.130625942349181e-01 
1.340000000000000e+00 0.000000000000000e+00  7.775613919123606e-01 
1.350000000000000e+00 0.000000000000000e+00  7.253891766407390e-01 
1.360000000000000e+00 0.000000000000000e+00  6.548252112840766e-01 
1.370000000000000e+00 0.000000000000000e+00  5.681949310757504e-01 
1.380000000000000e+00 0.000000000000000e+00  4.724625050573590e-01 
1.390000000000000e+00 0.000000000000000e+00  3.776831804984565e-01 
1.400000000000000e+00 0.000000000000000e+00  2.938075211647818e-01 
1.410000000000000e+00 0.000000000000000e+00  2.274338664815414e-01 
1.420000000000000e+00 0.000000000000000e+00  1.802289525781089e-01 
1.430000000000000e+00 0.000000000000000e+00  1.496943066183226e-01 
1.440000000000000e+00 0.000000000000000e+00  1.313989489354832e-01 
1.450000000000000e+00 0.000000000000000e+00  1.210559764844130e-01 
1.460000000000000e+00 0.000000000000000e+00  1.155142506122387e-01 
1.470000000000000e+00 0.000000000000000e+00  1.128358764249517e-01 
1.480000000000000e+00 0.000000000000000e+00  1.120234027369001e-01 
1.490000000000000e+00 0.000000000000000e+00  1.127702208066772e-01 
1.500000000000000e+00 0.000000000000000e+00  1.153678577192558e-01 
1.510000000000000e+00 0.000000000000000e+00  1.207951738278671e-01 
1.520000000000000e+00 0.000000000000000e+00  1.309665184954117e-01 
1.530000000000000e+00 0.000000000000000e+00  1.490095579093428e-01 
1.540000000000000e+00 0.000000000000000e+00  1.792047296762485e-01 
1.550000000000000e+00 0.000000000000000e+00  2.260187119888177e-01 
1.560000000000000e+00 0.000000000000000e+00  2.920386680034553e-01 
1.570000000000000e+00 0.000000000000000e+00  3.757125446410511e-01 
1.580000000000000e+00 0.000000000000000e+00  4.705269519960244e-01 
1.590000000000000e+00 0.000000000000000e+00  5.665402764418038e-01 
1.600000000000000e+00 0.000000000000000e+00  6.536249141913995e-01 
1.610000000000000e+00 0.000000000000000e+00  7.247006661280900e-01 
1.620000000000000e+00 0.000000000000000e+00  7.773375570108640e-01 
1.630000000000000e+00 0.000000000000000e+00  8.132013195416957e-01 
1.640000000000000e+00 0.000000000000000e+00  8.361361448065502e-01 
1.650000000000000e+00 0.000000000000000e+00  8.502456326149369e-01 
1.660000000000000e+00 0.000000000000000e+00  8.588194085635599e-01 
1.670000000000000e+00 0.000000000000000e+00  8.640937099934030e-01 
1.680000000000000e+00 0.000000000000000e+00  8.674337762106704e-01 
1.690000000000000e+00 0.000000000000000e+00  8.696015703418587e-01 
1.700000000000000e+00 0.000000000000000e+00  8.709627907141504e-01 
1.710000000000000e+00 0.000000000000000e+00  8.716013246816655e-01 
1.720000000000000e+00 0.000000000000000e+00  8.713441402077584e-01 
1.730000000000000e+00 0.000000000000000e+00  8.696962052126445e-01 
1.740000000000000e+00 0.000000000000000e+00  8.656727860623439e-01 
1.750000000000000e+00 0.000000000000000e+00  8.575219063516459e-01 
1.760000000000000e+00 0.000000000000000e+00  8.424006641739467e-01 
1.770000000000000e+00 0.000000000000000e+00  8.162664437866410e-01 
1.780000000000000e+00 0.000000000000000e+00  7.744997762994734e-01 
1.790000000000000e+00 0.000000000000000e+00  7.136683651263798e-01 
1.800000000000000e+00 0.000000000000000e+00  6.339440014266254e-01 
1.810000000000000e+00 0.000000000000000e+00  5.406206692041455e-01 
1.820000000000000e+00 0.000000000000000e+00  4.433182297542994e-01 
1.830000000000000e+00 0.000000000000000e+00  3.529354374858145e-01 
1.840000000000000e+00 0.000000000000000e+00  2.779445413785530e-01 
1.850000000000000e+00 0.000000000000000e+00  2.220304578546204e-01 
1.860000000000000e+00 0.000000000000000e+00  1.841403086226979e-01 
1.870000000000000e+00 0.000000000000000e+00  1.604050912607508e-01 
1.880000000000000e+00 0.000000000000000e+00  1.463849726028724e-01 
1.890000000000000e+00 0.000000000000000e+00  1.384467666175066e-01 
1.900000000000000e+00 0.000000000000000e+00  1.341363760641774e-01 
1.910000000000000e+00 0.000000000000000e+00  1.320137022174577e-01 
1.920000000000000e+00 0.000000000000000e+00  1.313785626941593e-01 
1.930000000000000e+00 0.000000000000000e+00  1.320854537737057e-01 
1.940000000000000e+00 0.000000000000000e+00  1.345018183389417e-01 
1.950000000000000e+00 0.000000000000000e+00  1.396177109163459e-01 
1.960000000000000e+00 0.000000000000000e+00  1.492905958617564e-01 
1.970000000000000e+00 0.000000000000000e+00  1.665257553258049e-01 
1.980000000000000e+00 0.000000000000000e+00  1.954884387585706e-01 
1.990000000000000e+00 0.000000000000000e+00  2.407228007395738e-01 
2.000000000000000e+00 0.000000000000000e+00  3.052553139542308e-01 
2.010000000000000e+00 0.000000000000000e+00  3.882105736295120e-01 
2.020000000000000e+00 0.000000000000000e+00  4.835252137872101e-01 
2.030000000000000e+00 0.000000000000000e+00  5.810561696693759e-01 
2.040000000000000e+00 0.000000000000000e+00  6.698569813314904e-01 
2.050000000000000e+00 0.000000000000000e+00  7.419124821581847e-01 
2.060000000000000e+00 0.000000000000000e+00  7.942933999089602e-01 
2.070000000000000e+00 0.000000000000000e+00  8.287583504072071e-01 
2.080000000000000e+00 0.000000000000000e+00  8.495497187885328e-01 
2.090000000000000e+00 0.000000000000000e+00  8.610814661912106e-01 
2.100000000000000e+00 0.000000000000000e+00  8.666449499021349e-01 
2.110000000000000e+00 0.000000000000000e+00  8.680928949063249e-01 
2.120000000000000e+00 0.000000000000000e+00  8.659273170581835e-01 
2.130000000000000e+00 0.000000000000000e+00  8.593559729569484e-01 
2.140000000000000e+00 0.000000000000000e+00  8.461961237519103e-01 
2.150000000000000e+00 0.000000000000000e+00  8.228142933018252e-01 
2.160000000000000e+00 0.000000000000000e+00  7.846060976820675e-01 
2.170000000000000e+00 0.000000000000000e+00  7.275656878677507e-01 
2.180000000000000e+00 0.000000000000000e+00  6.507634041606281e-01 
2.190000000000000e+00 0.000000000000000e+00  5.583461417784803e-01 
2.200000000000000e+00 0.000000000000000e+00  4.593911371097522e-01 
2.210000000000000e+00 0.000000000000000e+00  3.652077387877932e-01 
2.220000000000000e+00 0.000000000000000e+00  2.854196412004865e-01 
2.230000000000000e+00 0.000000000000000e+00  2.249826257476594e-01 
2.240000000000000e+00 0.000000000000000e+00  1.836455425847887e-01 
2.250000000000000e+00 0.000000000000000e+00  1.576933701352417e-01 
2.260000000000000e+00 0.000000000000000e+00  1.424152226463954e-01 
2.270000000000000e+00 0.000000000000000e+00  1.337936121372051e-01 
2.280000000000000e+00 0.000000000000000e+00  1.290422751981509e-01 
2.290000000000000e+00 0.000000000000000e+00  1.264512284495363e-01 
2.300000000000000e+00 0.000000000000000e+00  1.250440941869703e-01 
2.310000000000000e+00 0.000000000000000e+00  1.242865960469822e-01 
2.320000000000000e+00 0.000000000000000e+00  1.238946819291041e-01 
2.330000000000000e+00 0.000000000000000e+00  1.237225421723946e-01 
2.340000000000000e+00 0.000000000000000e+00  1.237022797811494e-01 
2.350000000000000e+00 0.000000000000000e+00  1.238150719939088e-01 
2.360000000000000e+00 0.000000000000000e+00  1.240829230117380e-01 
2.370000000000000e+00 0.000000000000000e+00  1.245776313083496e-01 
2.380000000000000e+00 0.000000000000000e+00  1.254502284283734e-01 
2.390000000000000e+00 0.000000000000000e+00  1.269913803408669e-01 
2.400000000000000e+00 0.000000000000000e+00  1.297417129519110e-01 
2.410000000000000e+00 0.000000000000000e+00  1.346774398272276e-01 
2.420000000000000e+00 0.000000000000000e+00  1.434856517340064e-01 
2.430000000000000e+00 0.000000000000000e+00  1.588749119655440e-01 
2.440000000000000e+00 0.000000000000000e+00  1.846874292637132e-01 
2.450000000000000e+00 0.000000000000000e+00  2.253453763232670e-01 
2.460000000000000e+00 0.000000000000000e+00  2.842372070751243e-01 
2.470000000000000e+00 0.000000000000000e+00  3.614300648842682e-01 
2.480000000000000e+00 0.000000000000000e+00  4.521019483920355e-01 
2.490000000000000e+00 0.000000000000000e+00  5.470880670720542e-01 
2.500000000000000e+00 0.000000000000000e+00  6.356355130600471e-01 
2.510000000000000e+00 0.000000000000000e+00  7.089487858749038e-01 
2.520000000000000e+00 0.000000000000000e+00  7.625570933565841e-01 
2.530000000000000e+00 0.000000000000000e+00  7.963100072260043e-01 
2.540000000000000e+00 0.000000000000000e+00  8.123658478392092e-01 
2.550000000000000e+00 0.000000000000000e+00  8.126781003115540e-01 
2.560000000000000e+00 0.000000000000000e+00  7.973841398275999e-01 
2.570000000000000e+00 0.000000000000000e+00  7.647000423510300e-01 
2.580000000000000e+00 0.000000000000000e+00  7.123390003449155e-01 
2.590000000000000e+00 0.000000000000000e+00  6.399504407308603e-01 
2.600000000000000e+00 0.000000000000000e+00  5.513166856728962e-01 
2.610000000000000e+00 0.000000000000000e+00  4.547694229028041e-01 
2.620000000000000e+00 0.000000000000000e+00  3.611852061250467e-01 
2.630000000000000e+00 0.000000000000000e+00  2.804486360889696e-01 
2.640000000000000e+00 0.000000000000000e+00  2.183032812655620e-01 
2.650000000000000e+00 0.000000000000000e+00  1.753014336752578e-01 
2.660000000000000e+00 0.000000000000000e+00  1.481535419552100e-01 
2.670000000000000e+00 0.000000000000000e+00  1.321807559317206e-01 
2.680000000000000e+00 0.000000000000000e+00  1.232155720466684e-01 
2.690000000000000e+00 0.000000000000000e+00  1.183150295898953e-01 
2.700000000000000e+00 0.000000000000000e+00  1.156649607309479e-01 
2.710000000000000e+00 0.000000000000000e+00  1.142317996134498e-01 
2.720000000000000e+00 0.000000000000000e+00  1.134520593393439e-01 
2.730000000000000e+00 0.000000000000000e+00  1.130262170621063e-01 
2.740000000000000e+00 0.000000000000000e+00  1.127985782220945e-01 
2.750000000000000e+00 0.000000000000000e+00  1.126922393386754e-01 
2.760000000000000e+00 0.000000000000000e+00  1.126765394157150e-01 
2.770000000000000e+00 0.000000000000000e+00  1.127541733133644e-01 
2.780000000000000e+00 0.000000000000000e+00  1.129626253120475e-01 
2.790000000000000e+00 0.000000000000000e+00  1.133905561203012e-01 
2.800000000000000e+00 0.000000000000000e+00  1.142159793764344e-01 
2.810000000000000e+00 0.000000000000000e+00  1.157811876741221e-01 
2.820000000000000e+00 0.000000000000000e+00  1.187298109342135e-01 
2.830000000000000e+00 0.000000000000000e+00  1.242383602001724e-01 
2.840000000000000e+00 0.000000000000000e+00  1.343530114961790e-01 
2.850000000000000e+00 0.000000000000000e+00  1.523306683419835e-01 
2.860000000000000e+00 0.000000000000000e+00  1.826245064857524e-01 
2.870000000000000e+00 0.000000000000000e+00  2.299181944350347e-01 
2.880000000000000e+00 0.000000000000000e+00  2.969688521318897e-01 
2.890000000000000e+00 0.000000000000000e+00  3.821872155639471e-01 
2.900000000000000e+00 0.000000000000000e+00  4.787234955112260e-01 
2.910000000000000e+00 0.000000000000000e+00  5.761032088157233e-01 
2.920000000000000e+00 0.000000000000000e+00  6.637340817613274e-01 
2.930000000000000e+00 0.000000000000000e+00  7.343852897581491e-01 
2.940000000000000e+00 0.000000000000000e+00  7.858384010817315e-01 
2.950000000000000e+00 0.000000000000000e+00  8.201616908889784e-01 
2.960000000000000e+00 0.000000000000000e+00  8.415596604986387e-01 
2.970000000000000e+00 0.000000000000000e+00  8.543334808498348e-01 
2.980000000000000e+00 0.000000000000000e+00  8.618272158629452e-01 
2.990000000000000e+00 0.000000000000000e+00  8.662630381955617e-01 
3.000000000000000e+00 0.000000000000000e+00  8.689845814573588e-01 
3.010000000000000e+00 0.000000000000000e+00  8.707601202013198e-01 
3.020000000000000e+00 0.000000000000000e+00  8.720150190919816e-01 
3.030000000000000e+00 0.000000000000000e+00  8.729805971836039e-01 
3.040000000000000e+00 0.000000000000000e+00  8.737815017149878e-01 
3.050000000000000e+00 0.000000000000000e+00  8.744846831571126e-01 
3.060000000000000e+00 0.000000000000000e+00  8.751261474023077e-01 
3.070000000000000e+00 0.000000000000000e+00  8.757253332661571e-01 
3.080000000000000e+00 0.000000000000000e+00  8.762927274728217e-01 
3.090000000000000e+00 0.000000000000000e+00  8.768337939797123e-01 
3.100000000000000e+00 0.000000000000000e+00  8.773508420119762e-01 
3.110000000000000e+00 0.000000000000000e+00  8.778436205564338e-01 
3.120000000000000e+00 0.000000000000000e+00  8.783089009300989e-01 
3.130000000000000e+00 0.000000000000000e+00  8.787388868919401e-01 
3.140000000000000e+00 0.000000000000000e+00  8.791178002231175e-01 
3.150000000000000e+00 0.000000000000000e+00  8.794152239318889e-01 
3.160000000000000e+00 0.000000000000000e+00  8.795734338094437e-01 
3.170000000000000e+00 0.000000000000000e+00  8.794835020921926e-01 
3.180000000000000e+00 0.000000000000000e+00  8.789406424105320e-01 
3.190000000000000e+00 0.000000000000000e+00  8.775622678517928e-01 
3.200000000000000e+00 0.000000000000000e+00  8.746431457744447e-01 
3.210000000000000e+00 0.000000000000000e+00  8.689181741852999e-01 
3.220000000000000e+00 0.000000000000000e+00  8.582319286217227e-01 
3.230000000000000e+00 0.000000000000000e+00  8.392355228952729e-01 
3.240000000000000e+00 0.000000000000000e+00  8.074861706577503e-01 
3.250000000000000e+00 0.000000000000000e+00  7.585138755447408e-01 
3.260000000000000e+00 0.000000000000000e+00  6.899973365421241e-01 
3.270000000000000e+00 0.000000000000000e+00  6.040474677569595e-01 
3.280000000000000e+00 0.000000000000000e+00  5.078891356621266e-01 
3.290000000000000e+00 0.000000000000000e+00  4.120414948907134e-01 
3.300000000000000e+00 0.000000000000000e+00  3.267846179838554e-01 
3.310000000000000e+00 0.000000000000000e+00  2.588255326351650e-01 
3.320000000000000e+00 0.000000000000000e+00  2.098825475759722e-01 
3.330000000000000e+00 0.000000000000000e+00  1.775967810680079e-01 
3.340000000000000e+00 0.000000000000000e+00  1.577171331730579e-01 
3.350000000000000e+00 0.000000000000000e+00  1.460467748328052e-01 
3.360000000000000e+00 0.000000000000000e+00  1.393841900119414e-01 
3.370000000000000e+00 0.000000000000000e+00  1.356267312654134e-01 
3.380000000000000e+00 0.000000000000000e+00  1.335166504786062e-01 
3.390000000000000e+00 0.000000000000000e+00  1.323516933376952e-01 
3.400000000000000e+00 0.000000000000000e+00  1.317744612016225e-01 
3.410000000000000e+00 0.000000000000000e+00  1.316509466986231e-01 
3.420000000000000e+00 0.000000000000000e+00  1.320226447379017e-01 
3.430000000000000e+00 0.000000000000000e+00  1.331223265919795e-01 
3.440000000000000e+00 0.000000000000000e+00  1.354576966081383e-01 
3.450000000000000e+00 0.000000000000000e+00  1.399792426046171e-01 
3.460000000000000e+00 0.000000000000000e+00  1.483433423821262e-01 
3.470000000000000e+00 0.000000000000000e+00  1.632217625819663e-01 
3.480000000000000e+00 0.000000000000000e+00  1.884408686997064e-01 
3.490000000000000e+00 0.000000000000000e+00  2.284969279392830e-01 
3.500000000000000e+00 0.000000000000000e+00  2.870182783879168e-01 
3.510000000000000e+00 0.000000000000000e+00  3.644607476781062e-01 
3.520000000000000e+00 0.000000000000000e+00  4.563696631579351e-01 
3.530000000000000e+00 0.000000000000000e+00  5.537024245663545e-01 
3.540000000000000e+00 0.000000000000000e+00  6.455089734947369e-01 
3.550000000000000e+00 0.000000000000000e+00  7.226770001731103e-01 
3.560000000000000e+00 0.000000000000000e+00  7.807033284321045e-01 
3.570000000000000e+00 0.000000000000000e+00  8.200913489439209e-01 
3.580000000000000e+00 0.000000000000000e+00  8.445893788379231e-01 
3.590000000000000e+00 0.000000000000000e+00  8.588048871732922e-01 
3.600000000000000e+00 0.000000000000000e+00  8.666189947032540e-01 
3.610000000000000e+00 0.000000000000000e+00  8.707101833775104e-01 
3.620000000000000e+00 0.000000000000000e+00  8.727230305349625e-01 
3.630000000000000e+00 0.000000000000000e+00  8.736016136460362e-01 
3.640000000000000e+00 0.000000000000000e+00  8.738682872115876e-01 
3.650000000000000e+00 0.000000000000000e+00  8.738066920250619e-01 
3.660000000000000e+00 0.000000000000000e+00  8.735695943171429e-01 
3.670000000000000e+00 0.000000000000000e+00  8.732391501883587e-01 
3.680000000000000e+00 0.000000000000000e+00  8.728597025771854e-01 
3.690000000000000e+00 0.000000000000000e+00  8.724553929095820e-01 
3.700000000000000e+00 0.000000000000000e+00  8.720395458406121e-01 
3.710000000000000e+00 0.000000000000000e+00  8.716196297192674e-01 
3.720000000000000e+00 0.000000000000000e+00  8.711998318847715e-01 
3.730000000000000e+00 0.000000000000000e+00  8.707823284110763e-01 
3.740000000000000e+00 0.000000000000000e+00  8.703678116081710e-01 
3.750000000000000e+00 0.000000000000000e+00  8.699555615972050e-01 
3.760000000000000e+00 0.000000000000000e+00  8.695431999753378e-01 
3.770000000000000e+00 0.000000000000000e+00  8.691261855878465e-01 
3.780000000000000e+00 0.000000000000000e+00  8.686970749867549e-01 
3.790000000000000e+00 0.000000000000000e+00  8.682445592075450e-01 
3.800000000000000e+00 0.000000000000000e+00  8.677522985815053e-01 
3.810000000000000e+00 0.000000000000000e+00  8.671976076133037e-01 
3.820000000000000e+00 0.000000000000000e+00  8.665500938562686e-01 
3.830000000000000e+00 0.000000000000000e+00  8.657704298052186e-01 
3.840000000000000e+00 0.000000000000000e+00  8.648095348297319e-01 
3.850000000000000e+00 0.000000000000000e+00  8.636085600485257e-01 
3.860000000000000e+00 0.000000000000000e+00  8.621001885041287e-01 
3.870000000000000e+00 0.000000000000000e+00  8.602118559486719e-01 
3.880000000000000e+00 0.000000000000000e+00  8.578715105107829e-01 
3.890000000000000e+00 0.000000000000000e+00  8.550163817034706e-01 
3.900000000000000e+00 0.000000000000000e+00  8.516048230980570e-01 
3.910000000000000e+00 0.000000000000000e+00  8.476305536482864e-01 
3.920000000000000e+00 0.000000000000000e+00  8.431375725700119e-01 
3.930000000000000e+00 0.000000000000000e+00  8.382328678405092e-01 
3.940000000000000e+00 0.000000000000000e+00  8.330931992580592e-01 
3.950000000000000e+00 0.000000000000000e+00  8.279622443704298e-01 
3.960000000000000e+00 0.000000000000000e+00  8.231356373860154e-01 
3.970000000000000e+00 0.000000000000000e+00  8.189338686713546e-01 
3.980000000000000e+00 0.000000000000000e+00  8.156660671299713e-01 
3.990000000000000e+00 0.000000000000000e+00  8.135904207877112e-01 
4.000000000000000e+00 0.000000000000000e+00  8.128784907297372e-01 
0.000000000000000e+00 1.000000000000000e-02  8.703840302409825e-01 
1.000000000000000e-02 1.000000000000000e-02  8.704126693443651e-01 
2.000000000000000e-02 1.000000000000000e-02  8.704979313607860e-01 
3.000000000000000e-02 1.000000000000000e-02  8.706378922203351e-01 
4.000000000000000e-02 1.000000000000000e-02  8.708294800824344e-01 
5.000000000000000e-02 1.000000000000000e-02  8.710686629150056e-01 
6.000000000000000e-02 1.000000000000000e-02  8.713506836964927e-01 
7.000000000000001e-02 1.000000000000000e-02  8.716703206597354e-01 
8.000000000000000e-02 1.000000000000000e-02  8.720221494019039e-01 
9.000000000000000e-02 1.000000000000000e-02  8.724007859326078e-01 
1.000000000000000e-01 1.000000000000000e-02  8.728010941890980e-01 
1.100000000000000e-01 1.000000000000000e-02  8.732183473074169e-01 
1.200000000000000e-01 1.000000000000000e-02  8.736483380248635e-01 
1.300000000000000e-01 1.000000000000000e-02  8.740874391387259e-01 
1.400000000000000e-01 1.000000000000000e-02  8.745326193369530e-01 
1.500000000000000e-01 1.000000000000000e-02  8.749814226244681e-01 
1.600000000000000e-01 1.000000000000000e-02  8.754319209561735e-01 
1.700000000000000e-01 1.000000000000000e-02  8.758826497403175e-01 
1.800000000000000e-01 1.000000000000000e-02  8.763325349167602e-01 
1.900000000000000e-01 1.000000000000000e-02  8.767808187161451e-01 
2.000000000000000e-01 1.000000000000000e-02  8.772269893178686e-01 
2.100000000000000e-01 1.000000000000000e-02  8.776707177266601e-01 
2.200000000000000e-01 1.000000000000000e-02  8.781118034654047e-01 
2.300000000000000e-01 1.000000000000000e-02  8.785501292230571e-01 
2.400000000000000e-01 1.000000000000000e-02  8.789856233954942e-01 
2.500000000000000e-01 1.000000000000000e-02  8.794182284205005e-01 
2.600000000000000e-01 1.000000000000000e-02  8.798478717480600e-01 
2.700000000000000e-01 1.000000000000000e-02  8.802744348888508e-01 
2.800000000000000e-01 1.000000000000000e-02  8.806977137230494e-01 
2.900000000000000e-01 1.000000000000000e-02  8.811173592223603e-01 
3.000000000000000e-01 1.000000000000000e-02  8.815327803139907e-01 
3.100000000000000e-01 1.000000000000000e-02  8.819429767942480e-01 
3.200000000000000e-01 1.000000000000000e-02  8.823462443474717e-01 
3.300000000000000e-01 1.000000000000000e-02  8.827396451617364e-01 
3.400000000000000e-01 1.000000000000000e-02  8.831180459891512e-01 
3.500000000000000e-01 1.000000000000000e-02  8.834723518470461e-01 
3.600000000000000e-01 1.000000000000000e-02  8.837862336077353e-01 
3.700000000000000e-01 1.000000000000000e-02  8.840300208301818e-01 