# vtk DataFile Version 2.0
step 0 time 0.000000e+00 normalized time 0.000000e+00, generated by ipykernel_launcher.py
ASCII
DATASET UNSTRUCTURED_GRID

POINTS 484 float
-1.050000e+01 -1.050000e+01 0.000000e+00
-1.050000e+01 -9.500000e+00 0.000000e+00
-1.050000e+01 -8.500000e+00 0.000000e+00
-1.050000e+01 -7.500000e+00 0.000000e+00
-1.050000e+01 -6.500000e+00 0.000000e+00
-1.050000e+01 -5.500000e+00 0.000000e+00
-1.050000e+01 -4.500000e+00 0.000000e+00
-1.050000e+01 -3.500000e+00 0.000000e+00
-1.050000e+01 -2.500000e+00 0.000000e+00
-1.050000e+01 -1.500000e+00 0.000000e+00
-1.050000e+01 -5.000000e-01 0.000000e+00
-1.050000e+01 5.000000e-01 0.000000e+00
-1.050000e+01 1.500000e+00 0.000000e+00
-1.050000e+01 2.500000e+00 0.000000e+00
-1.050000e+01 3.500000e+00 0.000000e+00
-1.050000e+01 4.500000e+00 0.000000e+00
-1.050000e+01 5.500000e+00 0.000000e+00
-1.050000e+01 6.500000e+00 0.000000e+00
-1.050000e+01 7.500000e+00 0.000000e+00
-1.050000e+01 8.500000e+00 0.000000e+00
-1.050000e+01 9.500000e+00 0.000000e+00
-1.050000e+01 1.050000e+01 0.000000e+00
-9.500000e+00 -1.050000e+01 0.000000e+00
-9.500000e+00 -9.500000e+00 0.000000e+00
-9.500000e+00 -8.500000e+00 0.000000e+00
-9.500000e+00 -7.500000e+00 0.000000e+00
-9.500000e+00 -6.500000e+00 0.000000e+00
-9.500000e+00 -5.500000e+00 0.000000e+00
-9.500000e+00 -4.500000e+00 0.000000e+00
-9.500000e+00 -3.500000e+00 0.000000e+00
-9.500000e+00 -2.500000e+00 0.000000e+00
-9.500000e+00 -1.500000e+00 0.000000e+00
-9.500000e+00 -5.000000e-01 0.000000e+00
-9.500000e+00 5.000000e-01 0.000000e+00
-9.500000e+00 1.500000e+00 0.000000e+00
-9.500000e+00 2.500000e+00 0.000000e+00
-9.500000e+00 3.500000e+00 0.000000e+00
-9.500000e+00 4.500000e+00 0.000000e+00
-9.500000e+00 5.500000e+00 0.000000e+00
-9.500000e+00 6.500000e+00 0.000000e+00
-9.500000e+00 7.500000e+00 0.000000e+00
-9.500000e+00 8.500000e+00 0.000000e+00
-9.500000e+00 9.500000e+00 0.000000e+00
-9.500000e+00 1.050000e+01 0.000000e+00
-8.500000e+00 -1.050000e+01 0.000000e+00
-8.500000e+00 -9.500000e+00 0.000000e+00
-8.500000e+00 -8.500000e+00 0.000000e+00
-8.500000e+00 -7.500000e+00 0.000000e+00
-8.500000e+00 -6.500000e+00 0.000000e+00
-8.500000e+00 -5.500000e+00 0.000000e+00
-8.500000e+00 -4.500000e+00 0.000000e+00
-8.500000e+00 -3.500000e+00 0.000000e+00
-8.500000e+00 -2.500000e+00 0.000000e+00
-8.500000e+00 -1.500000e+00 0.000000e+00
-8.500000e+00 -5.000000e-01 0.000000e+00
-8.500000e+00 5.000000e-01 0.000000e+00
-8.500000e+00 1.500000e+00 0.000000e+00
-8.500000e+00 2.500000e+00 0.000000e+00
-8.500000e+00 3.500000e+00 0.000000e+00
-8.500000e+00 4.500000e+00 0.000000e+00
-8.500000e+00 5.500000e+00 0.000000e+00
-8.500000e+00 6.500000e+00 0.000000e+00
-8.500000e+00 7.500000e+00 0.000000e+00
-8.500000e+00 8.500000e+00 0.000000e+00
-8.500000e+00 9.500000e+00 0.000000e+00
-8.500000e+00 1.050000e+01 0.000000e+00
-7.500000e+00 -1.050000e+01 0.000000e+00
-7.500000e+00 -9.500000e+00 0.000000e+00
-7.500000e+00 -8.500000e+00 0.000000e+00
-7.500000e+00 -7.500000e+00 0.000000e+00
-7.500000e+00 -6.500000e+00 0.000000e+00
-7.500000e+00 -5.500000e+00 0.000000e+00
-7.500000e+00 -4.500000e+00 0.000000e+00
-7.500000e+00 -3.500000e+00 0.000000e+00
-7.500000e+00 -2.500000e+00 0.000000e+00
-7.500000e+00 -1.500000e+00 0.000000e+00
-7.500000e+00 -5.000000e-01 0.000000e+00
-7.500000e+00 5.000000e-01 0.000000e+00
-7.500000e+00 1.500000e+00 0.000000e+00
-7.500000e+00 2.500000e+00 0.000000e+00
-7.500000e+00 3.500000e+00 0.000000e+00
-7.500000e+00 4.500000e+00 0.000000e+00
-7.500000e+00 5.500000e+00 0.000000e+00
-7.500000e+00 6.500000e+00 0.000000e+00
-7.500000e+00 7.500000e+00 0.000000e+00
-7.500000e+00 8.500000e+00 0.000000e+00
-7.500000e+00 9.500000e+00 0.000000e+00
-7.500000e+00 1.050000e+01 0.000000e+00
-6.500000e+00 -1.050000e+01 0.000000e+00
-6.500000e+00 -9.500000e+00 0.000000e+00
-6.500000e+00 -8.500000e+00 0.000000e+00
-6.500000e+00 -7.500000e+00 0.000000e+00
-6.500000e+00 -6.500000e+00 0.000000e+00
-6.500000e+00 -5.500000e+00 0.000000e+00
-6.500000e+00 -4.500000e+00 0.000000e+00
-6.500000e+00 -3.500000e+00 0.000000e+00
-6.500000e+00 -2.500000e+00 0.000000e+00
-6.500000e+00 -1.500000e+00 0.000000e+00
-6.500000e+00 -5.000000e-01 0.000000e+00
-6.500000e+00 5.000000e-01 0.000000e+00
-6.500000e+00 1.500000e+00 0.000000e+00
-6.500000e+00 2.500000e+00 0.000000e+00
-6.500000e+00 3.500000e+00 0.000000e+00
-6.500000e+00 4.500000e+00 0.000000e+00
-6.500000e+00 5.500000e+00 0.000000e+00
-6.500000e+00 6.500000e+00 0.000000e+00
-6.500000e+00 7.500000e+00 0.000000e+00
-6.500000e+00 8.500000e+00 0.000000e+00
-6.500000e+00 9.500000e+00 0.000000e+00
-6.500000e+00 1.050000e+01 0.000000e+00
-5.500000e+00 -1.050000e+01 0.000000e+00
-5.500000e+00 -9.500000e+00 0.000000e+00
-5.500000e+00 -8.500000e+00 0.000000e+00
-5.500000e+00 -7.500000e+00 0.000000e+00
-5.500000e+00 -6.500000e+00 0.000000e+00
-5.500000e+00 -5.500000e+00 0.000000e+00
-5.500000e+00 -4.500000e+00 0.000000e+00
-5.500000e+00 -3.500000e+00 0.000000e+00
-5.500000e+00 -2.500000e+00 0.000000e+00
-5.500000e+00 -1.500000e+00 0.000000e+00
-5.500000e+00 -5.000000e-01 0.000000e+00
-5.500000e+00 5.000000e-01 0.000000e+00
-5.500000e+00 1.500000e+00 0.000000e+00
-5.500000e+00 2.500000e+00 0.000000e+00
-5.500000e+00 3.500000e+00 0.000000e+00
-5.500000e+00 4.500000e+00 0.000000e+00
-5.500000e+00 5.500000e+00 0.000000e+00
-5.500000e+00 6.500000e+00 0.000000e+00
-5.500000e+00 7.500000e+00 0.000000e+00
-5.500000e+00 8.500000e+00 0.000000e+00
-5.500000e+00 9.500000e+00 0.000000e+00
-5.500000e+00 1.050000e+01 0.000000e+00
-4.500000e+00 -1.050000e+01 0.000000e+00
-4.500000e+00 -9.500000e+00 0.000000e+00
-4.500000e+00 -8.500000e+00 0.000000e+00
-4.500000e+00 -7.500000e+00 0.000000e+00
-4.500000e+00 -6.500000e+00 0.000000e+00
-4.500000e+00 -5.500000e+00 0.000000e+00
-4.500000e+00 -4.500000e+00 0.000000e+00
-4.500000e+00 -3.500000e+00 0.000000e+00
-4.500000e+00 -2.500000e+00 0.000000e+00
-4.500000e+00 -1.500000e+00 0.000000e+00
-4.500000e+00 -5.000000e-01 0.000000e+00
-4.500000e+00 5.000000e-01 0.000000e+00
-4.500000e+00 1.500000e+00 0.000000e+00
-4.500000e+00 2.500000e+00 0.000000e+00
-4.500000e+00 3.500000e+00 0.000000e+00
-4.500000e+00 4.500000e+00 0.000000e+00
-4.500000e+00 5.500000e+00 0.000000e+00
-4.500000e+00 6.500000e+00 0.000000e+00
-4.500000e+00 7.500000e+00 0.000000e+00
-4.500000e+00 8.500000e+00 0.000000e+00
-4.500000e+00 9.500000e+00 0.000000e+00
-4.500000e+00 1.050000e+01 0.000000e+00
-3.500000e+00 -1.050000e+01 0.000000e+00
-3.500000e+00 -9.500000e+00 0.000000e+00
-3.500000e+00 -8.500000e+00 0.000000e+00
-3.500000e+00 -7.500000e+00 0.000000e+00
-3.500000e+00 -6.500000e+00 0.000000e+00
-3.500000e+00 -5.500000e+00 0.000000e+00
-3.500000e+00 -4.500000e+00 0.000000e+00
-3.500000e+00 -3.500000e+00 0.000000e+00
-3.500000e+00 -2.500000e+00 0.000000e+00
-3.500000e+00 -1.500000e+00 0.000000e+00
-3.500000e+00 -5.000000e-01 0.000000e+00
-3.500000e+00 5.000000e-01 0.000000e+00
-3.500000e+00 1.500000e+00 0.000000e+00
-3.500000e+00 2.500000e+00 0.000000e+00
-3.500000e+00 3.500000e+00 0.000000e+00
-3.500000e+00 4.500000e+00 0.000000e+00
-3.500000e+00 5.500000e+00 0.000000e+00
-3.500000e+00 6.500000e+00 0.000000e+00
-3.500000e+00 7.500000e+00 0.000000e+00
-3.500000e+00 8.500000e+00 0.000000e+00
-3.500000e+00 9.500000e+00 0.000000e+00
-3.500000e+00 1.050000e+01 0.000000e+00
-2.500000e+00 -1.050000e+01 0.000000e+00
-2.500000e+00 -9.500000e+00 0.000000e+00
-2.500000e+00 -8.500000e+00 0.000000e+00
-2.500000e+00 -7.500000e+00 0.000000e+00
-2.500000e+00 -6.500000e+00 0.000000e+00
-2.500000e+00 -5.500000e+00 0.000000e+00
-2.500000e+00 -4.500000e+00 0.000000e+00
-2.500000e+00 -3.500000e+00 0.000000e+00
-2.500000e+00 -2.500000e+00 0.000000e+00
-2.500000e+00 -1.500000e+00 0.000000e+00
-2.500000e+00 -5.000000e-01 0.000000e+00
-2.500000e+00 5.000000e-01 0.000000e+00
-2.500000e+00 1.500000e+00 0.000000e+00
-2.500000e+00 2.500000e+00 0.000000e+00
-2.500000e+00 3.500000e+00 0.000000e+00
-2.500000e+00 4.500000e+00 0.000000e+00
-2.500000e+00 5.500000e+00 0.000000e+00
-2.500000e+00 6.500000e+00 0.000000e+00
-2.500000e+00 7.500000e+00 0.000000e+00
-2.500000e+00 8.500000e+00 0.000000e+00
-2.500000e+00 9.500000e+00 0.000000e+00
-2.500000e+00 1.050000e+01 0.000000e+00
-1.500000e+00 -1.050000e+01 0.000000e+00
-1.500000e+00 -9.500000e+00 0.000000e+00
-1.500000e+00 -8.500000e+00 0.000000e+00
-1.500000e+00 -7.500000e+00 0.000000e+00
-1.500000e+00 -6.500000e+00 0.000000e+00
-1.500000e+00 -5.500000e+00 0.000000e+00
-1.500000e+00 -4.500000e+00 0.000000e+00
-1.500000e+00 -3.500000e+00 0.000000e+00
-1.500000e+00 -2.500000e+00 0.000000e+00
-1.500000e+00 -1.500000e+00 0.000000e+00
-1.500000e+00 -5.000000e-01 0.000000e+00
-1.500000e+00 5.000000e-01 0.000000e+00
-1.500000e+00 1.500000e+00 0.000000e+00
-1.500000e+00 2.500000e+00 0.000000e+00
-1.500000e+00 3.500000e+00 0.000000e+00
-1.500000e+00 4.500000e+00 0.000000e+00
-1.500000e+00 5.500000e+00 0.000000e+00
-1.500000e+00 6.500000e+00 0.000000e+00
-1.500000e+00 7.500000e+00 0.000000e+00
-1.500000e+00 8.500000e+00 0.000000e+00
-1.500000e+00 9.500000e+00 0.000000e+00
-1.500000e+00 1.050000e+01 0.000000e+00
-5.000000e-01 -1.050000e+01 0.000000e+00
-5.000000e-01 -9.500000e+00 0.000000e+00
-5.000000e-01 -8.500000e+00 0.000000e+00
-5.000000e-01 -7.500000e+00 0.000000e+00
-5.000000e-01 -6.500000e+00 0.000000e+00
-5.000000e-01 -5.500000e+00 0.000000e+00
-5.000000e-01 -4.500000e+00 0.000000e+00
-5.000000e-01 -3.500000e+00 0.000000e+00
-5.000000e-01 -2.500000e+00 0.000000e+00
-5.000000e-01 -1.500000e+00 0.000000e+00
-5.000000e-01 -5.000000e-01 0.000000e+00
-5.000000e-01 5.000000e-01 0.000000e+00
-5.000000e-01 1.500000e+00 0.000000e+00
-5.000000e-01 2.500000e+00 0.000000e+00
-5.000000e-01 3.500000e+00 0.000000e+00
-5.000000e-01 4.500000e+00 0.000000e+00
-5.000000e-01 5.500000e+00 0.000000e+00
-5.000000e-01 6.500000e+00 0.000000e+00
-5.000000e-01 7.500000e+00 0.000000e+00
-5.000000e-01 8.500000e+00 0.000000e+00
-5.000000e-01 9.500000e+00 0.000000e+00
-5.000000e-01 1.050000e+01 0.000000e+00
[...]
POINT_DATA 484

SCALARS node_groups int 1
LOOKUP_TABLE default
0
0
0
0
0
0
0
0
0
0
0
0
0
0
0
0
0
0
0
0
0
0
0
0
0
0
0
0
0
0
0
0
0
0
0
0
0
0
0
0
0
0
0
0
0
0
0
0
0
0
0
0
0
0
0
0
0
0
0
0
0
0
0
0
0
0
0
0
0
0
0
0
0
0
0
0
0
0
0
0
0
0
0
0
0
0
0
0
0
0
0
0
0
0
0
0
0
0
0
0
0
0
0
0
0
0
0
0
0
0
0
0
0
0
0
0
0
0
0
0
0
0
0
0
0
0
0
0
0
0
0
0
0
0
0
0
0
0
0
0
0
0
0
0
0
0
0
0
0
0
0
0
0
0
0
0
0
0
0
0
0
0
0
0
0
0
0
0
0
0
0
0
0
0
0
0
0
0
0
0
0
0
0
0
0
0
0
0
0
0
0
0
0
0
0
0
0
0
0
0
0
0
0
0
0
0
0
0
0
0
0
0
0
0
0
0
0
0
0
0
0
0
0
0
0
0
0
0
0
0
0
0
0
0
0
0
0
0
0
0
0
0
0
0
0
0
0
0
0
0
0
0
0
0
0
0
0
0
0
0
0
0
0
0
0
0
0
0
0
0
0
0
0
0
0
0
0
0
0
0
0
0
0
0
0
0
0
0
0
0
0
0
0
0
0
0
0
0
0
0
0
0
0
0
0
0
0
0
0
0
0
0
0
0
0
0
0
0
0
0
0
0
0
0
0
0
0
0
0
0
0
0
0
0
0
0
0
0
0
0
0
0
0
0
0
0
0
0
0
0
0
0
0
0
0
0
0
0
0
0
0
0
0
0
0
0
0
0
0
0
0
0
0
0
0
0
0
0
0
0
0
0
0
0
0
0
0
0
0
0
0
0
0
0
0
0
0
0
0
0
0
0
0
0
0
0
0
0
0
0
0
0
0
0
0
0
0
0
0
0
0
0
0
0
0
0
0
0
0
0
0
0
0
0
0
0
0
0
0
0
0
0
0
0
0
0
0
0
0
0
0
0
0
0
0
0
0
0
0
0
0
0
0
0
0
0
0
0
0
0
0
0
0
0
0
0
0
0
0
0
0
0
0
0

VECTORS u float
0.000000e+00 2.993227e-03 0.000000e+00
7.453239e-15 2.994097e-03 0.000000e+00
9.281855e-15 2.994928e-03 0.000000e+00
1.022251e-14 2.995676e-03 0.000000e+00
1.084419e-14 2.996285e-03 0.000000e+00
1.136764e-14 2.996686e-03 0.000000e+00
1.179092e-14 2.996807e-03 0.000000e+00
1.212658e-14 2.996585e-03 0.000000e+00
1.233020e-14 2.995991e-03 0.000000e+00
1.245510e-14 2.995051e-03 0.000000e+00
1.251950e-14 2.993865e-03 0.000000e+00
1.251408e-14 2.992590e-03 0.000000e+00
1.240934e-14 2.991404e-03 0.000000e+00
1.224498e-14 2.990464e-03 0.000000e+00
1.198954e-14 2.989870e-03 0.000000e+00
1.164628e-14 2.989648e-03 0.000000e+00
1.122887e-14 2.989769e-03 0.000000e+00
1.073881e-14 2.990170e-03 0.000000e+00
1.010910e-14 2.990779e-03 0.000000e+00
9.184493e-15 2.991526e-03 0.000000e+00
7.409654e-15 2.992358e-03 0.000000e+00
0.000000e+00 2.993227e-03 0.000000e+00
9.996689e-04 2.993227e-03 0.000000e+00
9.996949e-04 2.994090e-03 0.000000e+00
9.997766e-04 2.994917e-03 0.000000e+00
9.999232e-04 2.995668e-03 0.000000e+00
1.000147e-03 2.996287e-03 0.000000e+00
1.000457e-03 2.996707e-03 0.000000e+00
1.000850e-03 2.996851e-03 0.000000e+00
1.001299e-03 2.996648e-03 0.000000e+00
1.001749e-03 2.996059e-03 0.000000e+00
1.002121e-03 2.995105e-03 0.000000e+00
1.002333e-03 2.993886e-03 0.000000e+00
1.002333e-03 2.992569e-03 0.000000e+00
1.002121e-03 2.991350e-03 0.000000e+00
1.001749e-03 2.990396e-03 0.000000e+00
1.001299e-03 2.989807e-03 0.000000e+00
1.000850e-03 2.989604e-03 0.000000e+00
1.000457e-03 2.989748e-03 0.000000e+00
1.000147e-03 2.990168e-03 0.000000e+00
9.999232e-04 2.990787e-03 0.000000e+00
9.997766e-04 2.991538e-03 0.000000e+00
9.996949e-04 2.992365e-03 0.000000e+00
9.996689e-04 2.993227e-03 0.000000e+00
1.999339e-03 2.993227e-03 0.000000e+00
1.999387e-03 2.994064e-03 0.000000e+00
1.999541e-03 2.994876e-03 0.000000e+00
1.999819e-03 2.995630e-03 0.000000e+00
2.000251e-03 2.996280e-03 0.000000e+00
2.000860e-03 2.996757e-03 0.000000e+00
2.001649e-03 2.996972e-03 0.000000e+00
2.002573e-03 2.996833e-03 0.000000e+00
2.003521e-03 2.996267e-03 0.000000e+00
2.004319e-03 2.995273e-03 0.000000e+00
2.004781e-03 2.993950e-03 0.000000e+00
2.004781e-03 2.992505e-03 0.000000e+00
2.004319e-03 2.991182e-03 0.000000e+00
2.003521e-03 2.990188e-03 0.000000e+00
2.002573e-03 2.989622e-03 0.000000e+00
2.001649e-03 2.989483e-03 0.000000e+00
2.000860e-03 2.989698e-03 0.000000e+00
2.000251e-03 2.990175e-03 0.000000e+00
1.999819e-03 2.990825e-03 0.000000e+00
1.999541e-03 2.991579e-03 0.000000e+00
1.999387e-03 2.992391e-03 0.000000e+00
1.999339e-03 2.993227e-03 0.000000e+00
2.999018e-03 2.993227e-03 0.000000e+00
2.999082e-03 2.994010e-03 0.000000e+00
2.999287e-03 2.994785e-03 0.000000e+00
2.999666e-03 2.995534e-03 0.000000e+00
3.000269e-03 2.996224e-03 0.000000e+00
3.001150e-03 2.996793e-03 0.000000e+00
3.002336e-03 2.997139e-03 0.000000e+00
3.003782e-03 2.997128e-03 0.000000e+00
3.005327e-03 2.996628e-03 0.000000e+00
3.006675e-03 2.995576e-03 0.000000e+00
3.007474e-03 2.994070e-03 0.000000e+00
3.007474e-03 2.992385e-03 0.000000e+00
3.006675e-03 2.990879e-03 0.000000e+00
3.005327e-03 2.989827e-03 0.000000e+00
3.003782e-03 2.989326e-03 0.000000e+00
3.002336e-03 2.989316e-03 0.000000e+00
3.001150e-03 2.989662e-03 0.000000e+00
3.000269e-03 2.990231e-03 0.000000e+00
2.999666e-03 2.990921e-03 0.000000e+00
2.999287e-03 2.991670e-03 0.000000e+00
2.999082e-03 2.992445e-03 0.000000e+00
2.999018e-03 2.993227e-03 0.000000e+00
3.998726e-03 2.993227e-03 0.000000e+00
3.998796e-03 2.993914e-03 0.000000e+00
3.999023e-03 2.994613e-03 0.000000e+00
3.999453e-03 2.995329e-03 0.000000e+00
4.000167e-03 2.996052e-03 0.000000e+00
4.001260e-03 2.996737e-03 0.000000e+00
4.002818e-03 2.997280e-03 0.000000e+00
4.004843e-03 2.997500e-03 0.000000e+00
4.007148e-03 2.997155e-03 0.000000e+00
4.009278e-03 2.996059e-03 0.000000e+00
4.010592e-03 2.994268e-03 0.000000e+00
4.010592e-03 2.992187e-03 0.000000e+00
4.009278e-03 2.990396e-03 0.000000e+00
4.007148e-03 2.989300e-03 0.000000e+00
4.004843e-03 2.988955e-03 0.000000e+00
4.002818e-03 2.989175e-03 0.000000e+00
4.001260e-03 2.989718e-03 0.000000e+00
4.000167e-03 2.990403e-03 0.000000e+00
3.999453e-03 2.991126e-03 0.000000e+00
3.999023e-03 2.991842e-03 0.000000e+00
3.998796e-03 2.992541e-03 0.000000e+00
3.998726e-03 2.993227e-03 0.000000e+00
4.998499e-03 2.993227e-03 0.000000e+00
4.998563e-03 2.993763e-03 0.000000e+00
4.998776e-03 2.994330e-03 0.000000e+00
4.999196e-03 2.994958e-03 0.000000e+00
4.999928e-03 2.995671e-03 0.000000e+00
5.001126e-03 2.996464e-03 0.000000e+00
5.002973e-03 2.997262e-03 0.000000e+00
5.005600e-03 2.997855e-03 0.000000e+00
5.008891e-03 2.997852e-03 0.000000e+00
5.012215e-03 2.996800e-03 0.000000e+00
5.014407e-03 2.994595e-03 0.000000e+00
5.014407e-03 2.991860e-03 0.000000e+00
5.012215e-03 2.989654e-03 0.000000e+00
5.008891e-03 2.988603e-03 0.000000e+00
5.005600e-03 2.988600e-03 0.000000e+00
5.002973e-03 2.989193e-03 0.000000e+00
5.001126e-03 2.989991e-03 0.000000e+00
4.999928e-03 2.990784e-03 0.000000e+00
4.999196e-03 2.991497e-03 0.000000e+00
4.998776e-03 2.992125e-03 0.000000e+00
4.998563e-03 2.992692e-03 0.000000e+00
4.998499e-03 2.993227e-03 0.000000e+00
5.998383e-03 2.993227e-03 0.000000e+00
5.998432e-03 2.993551e-03 0.000000e+00
5.998598e-03 2.993916e-03 0.000000e+00
5.998942e-03 2.994374e-03 0.000000e+00
5.999581e-03 2.994982e-03 0.000000e+00
6.000717e-03 2.995801e-03 0.000000e+00
6.002658e-03 2.996848e-03 0.000000e+00
6.005785e-03 2.997972e-03 0.000000e+00
6.010294e-03 2.998649e-03 0.000000e+00
6.015530e-03 2.997928e-03 0.000000e+00
6.019380e-03 2.995157e-03 0.000000e+00
6.019380e-03 2.991298e-03 0.000000e+00
6.015530e-03 2.988527e-03 0.000000e+00
6.010294e-03 2.987806e-03 0.000000e+00
6.005785e-03 2.988483e-03 0.000000e+00
6.002658e-03 2.989607e-03 0.000000e+00
6.000717e-03 2.990654e-03 0.000000e+00
5.999581e-03 2.991473e-03 0.000000e+00
5.998942e-03 2.992081e-03 0.000000e+00
5.998598e-03 2.992539e-03 0.000000e+00
5.998432e-03 2.992904e-03 0.000000e+00
5.998383e-03 2.993227e-03 0.000000e+00
6.998429e-03 2.993227e-03 0.000000e+00
6.998457e-03 2.993288e-03 0.000000e+00
6.998557e-03 2.993387e-03 0.000000e+00
6.998777e-03 2.993575e-03 0.000000e+00
6.999223e-03 2.993932e-03 0.000000e+00
7.000100e-03 2.994582e-03 0.000000e+00
7.001800e-03 2.995687e-03 0.000000e+00
7.005025e-03 2.997352e-03 0.000000e+00
7.010733e-03 2.999204e-03 0.000000e+00
7.019020e-03 2.999601e-03 0.000000e+00
7.026389e-03 2.996212e-03 0.000000e+00
7.026389e-03 2.990242e-03 0.000000e+00
7.019020e-03 2.986854e-03 0.000000e+00
7.010733e-03 2.987250e-03 0.000000e+00
7.005025e-03 2.989103e-03 0.000000e+00
7.001800e-03 2.990768e-03 0.000000e+00
7.000100e-03 2.991873e-03 0.000000e+00
6.999223e-03 2.992522e-03 0.000000e+00
6.998777e-03 2.992880e-03 0.000000e+00
6.998557e-03 2.993068e-03 0.000000e+00
6.998457e-03 2.993167e-03 0.000000e+00
6.998429e-03 2.993227e-03 0.000000e+00
7.998670e-03 2.993227e-03 0.000000e+00
7.998679e-03 2.993010e-03 0.000000e+00
7.998716e-03 2.992808e-03 0.000000e+00
7.998809e-03 2.992652e-03 0.000000e+00
7.999024e-03 2.992602e-03 0.000000e+00
7.999508e-03 2.992789e-03 0.000000e+00
8.000595e-03 2.993471e-03 0.000000e+00
8.003104e-03 2.995125e-03 0.000000e+00
8.009000e-03 2.998311e-03 0.000000e+00
8.021454e-03 3.001656e-03 0.000000e+00
8.037265e-03 2.998438e-03 0.000000e+00
8.037265e-03 2.988017e-03 0.000000e+00
8.021454e-03 2.984799e-03 0.000000e+00
8.009000e-03 2.988144e-03 0.000000e+00
8.003104e-03 2.991330e-03 0.000000e+00
8.000595e-03 2.992984e-03 0.000000e+00
7.999508e-03 2.993666e-03 0.000000e+00
7.999024e-03 2.993852e-03 0.000000e+00
7.998809e-03 2.993803e-03 0.000000e+00
7.998716e-03 2.993647e-03 0.000000e+00
7.998679e-03 2.993445e-03 0.000000e+00
7.998670e-03 2.993227e-03 0.000000e+00
8.999104e-03 2.993227e-03 0.000000e+00
8.999103e-03 2.992771e-03 0.000000e+00
8.999103e-03 2.992300e-03 0.000000e+00
8.999114e-03 2.991803e-03 0.000000e+00
8.999160e-03 2.991285e-03 0.000000e+00
8.999297e-03 2.990787e-03 0.000000e+00
8.999675e-03 2.990452e-03 0.000000e+00
9.000761e-03 2.990728e-03 0.000000e+00
9.004314e-03 2.993015e-03 0.000000e+00
9.017940e-03 3.001107e-03 0.000000e+00
9.055826e-03 3.003282e-03 0.000000e+00
9.055826e-03 2.983173e-03 0.000000e+00
9.017940e-03 2.985348e-03 0.000000e+00
9.004314e-03 2.993440e-03 0.000000e+00
9.000761e-03 2.995727e-03 0.000000e+00
8.999675e-03 2.996003e-03 0.000000e+00
8.999297e-03 2.995668e-03 0.000000e+00
8.999160e-03 2.995170e-03 0.000000e+00
8.999114e-03 2.994652e-03 0.000000e+00
8.999103e-03 2.994155e-03 0.000000e+00
8.999103e-03 2.993684e-03 0.000000e+00
8.999104e-03 2.993227e-03 0.000000e+00
9.999683e-03 2.993227e-03 0.000000e+00
9.999682e-03 2.992632e-03 0.000000e+00
9.999677e-03 2.991998e-03 0.000000e+00
9.999670e-03 2.991285e-03 0.000000e+00
9.999665e-03 2.990440e-03 0.000000e+00
9.999667e-03 2.989393e-03 0.000000e+00
9.999694e-03 2.988040e-03 0.000000e+00
9.999810e-03 2.986223e-03 0.000000e+00
1.000039e-02 2.983778e-03 0.000000e+00
1.000519e-02 2.981602e-03 0.000000e+00
1.008241e-02 3.002141e-03 0.000000e+00
1.008241e-02 2.984314e-03 0.000000e+00
1.000519e-02 3.004853e-03 0.000000e+00
1.000039e-02 3.002677e-03 0.000000e+00
9.999810e-03 3.000232e-03 0.000000e+00
9.999694e-03 2.998415e-03 0.000000e+00
9.999667e-03 2.997062e-03 0.000000e+00
9.999665e-03 2.996015e-03 0.000000e+00
9.999670e-03 2.995170e-03 0.000000e+00
9.999677e-03 2.994457e-03 0.000000e+00
9.999682e-03 2.993823e-03 0.000000e+00
9.999683e-03 2.993227e-03 0.000000e+00
1.100032e-02 2.993227e-03 0.000000e+00
1.100032e-02 2.992632e-03 0.000000e+00
1.100032e-02 2.991998e-03 0.000000e+00
1.100033e-02 2.991285e-03 0.000000e+00
1.100034e-02 2.990440e-03 0.000000e+00
1.100033e-02 2.989393e-03 0.000000e+00
1.100031e-02 2.988040e-03 0.000000e+00
1.100019e-02 2.986223e-03 0.000000e+00
1.099961e-02 2.983778e-03 0.000000e+00
1.099481e-02 2.981602e-03 0.000000e+00
1.091759e-02 3.002141e-03 0.000000e+00
1.091759e-02 2.984314e-03 0.000000e+00
1.099481e-02 3.004853e-03 0.000000e+00
1.099961e-02 3.002677e-03 0.000000e+00
1.100019e-02 3.000232e-03 0.000000e+00
1.100031e-02 2.998415e-03 0.000000e+00
1.100033e-02 2.997062e-03 0.000000e+00
1.100034e-02 2.996015e-03 0.000000e+00
1.100033e-02 2.995170e-03 0.000000e+00
1.100032e-02 2.994457e-03 0.000000e+00
1.100032e-02 2.993823e-03 0.000000e+00
1.100032e-02 2.993227e-03 0.000000e+00
1.200090e-02 2.993227e-03 0.000000e+00
1.200090e-02 2.992771e-03 0.000000e+00
1.200090e-02 2.992300e-03 0.000000e+00
1.200089e-02 2.991803e-03 0.000000e+00
1.200084e-02 2.991285e-03 0.000000e+00
1.200070e-02 2.990787e-03 0.000000e+00
1.200033e-02 2.990452e-03 0.000000e+00
1.199924e-02 2.990728e-03 0.000000e+00
1.199569e-02 2.993015e-03 0.000000e+00
1.198206e-02 3.001107e-03 0.000000e+00
1.194417e-02 3.003282e-03 0.000000e+00
1.194417e-02 2.983173e-03 0.000000e+00
1.198206e-02 2.985348e-03 0.000000e+00
1.199569e-02 2.993440e-03 0.000000e+00
1.199924e-02 2.995727e-03 0.000000e+00
1.200033e-02 2.996003e-03 0.000000e+00
1.200070e-02 2.995668e-03 0.000000e+00
1.200084e-02 2.995170e-03 0.000000e+00
1.200089e-02 2.994652e-03 0.000000e+00
1.200090e-02 2.994155e-03 0.000000e+00
1.200090e-02 2.993684e-03 0.000000e+00
1.200090e-02 2.993227e-03 0.000000e+00
1.300133e-02 2.993227e-03 0.000000e+00
1.300132e-02 2.993010e-03 0.000000e+00
1.300128e-02 2.992808e-03 0.000000e+00
1.300119e-02 2.992652e-03 0.000000e+00
1.300098e-02 2.992602e-03 0.000000e+00
1.300049e-02 2.992789e-03 0.000000e+00
1.299941e-02 2.993471e-03 0.000000e+00
1.299690e-02 2.995125e-03 0.000000e+00
1.299100e-02 2.998311e-03 0.000000e+00
1.297855e-02 3.001656e-03 0.000000e+00
1.296273e-02 2.998438e-03 0.000000e+00
1.296273e-02 2.988017e-03 0.000000e+00
1.297855e-02 2.984799e-03 0.000000e+00
1.299100e-02 2.988144e-03 0.000000e+00
1.299690e-02 2.991330e-03 0.000000e+00
1.299941e-02 2.992984e-03 0.000000e+00
1.300049e-02 2.993666e-03 0.000000e+00
1.300098e-02 2.993852e-03 0.000000e+00
1.300119e-02 2.993803e-03 0.000000e+00
1.300128e-02 2.993647e-03 0.000000e+00
1.300132e-02 2.993445e-03 0.000000e+00
1.300133e-02 2.993227e-03 0.000000e+00
1.400157e-02 2.993227e-03 0.000000e+00
1.400154e-02 2.993288e-03 0.000000e+00
1.400144e-02 2.993387e-03 0.000000e+00
1.400122e-02 2.993575e-03 0.000000e+00
1.400078e-02 2.993932e-03 0.000000e+00
1.399990e-02 2.994582e-03 0.000000e+00
1.399820e-02 2.995687e-03 0.000000e+00
1.399498e-02 2.997352e-03 0.000000e+00
1.398927e-02 2.999204e-03 0.000000e+00
1.398098e-02 2.999601e-03 0.000000e+00
1.397361e-02 2.996212e-03 0.000000e+00
1.397361e-02 2.990242e-03 0.000000e+00
1.398098e-02 2.986854e-03 0.000000e+00
1.398927e-02 2.987250e-03 0.000000e+00
1.399498e-02 2.989103e-03 0.000000e+00
1.399820e-02 2.990768e-03 0.000000e+00
1.399990e-02 2.991873e-03 0.000000e+00
1.400078e-02 2.992522e-03 0.000000e+00
1.400122e-02 2.992880e-03 0.000000e+00
1.400144e-02 2.993068e-03 0.000000e+00
1.400154e-02 2.993167e-03 0.000000e+00
1.400157e-02 2.993227e-03 0.000000e+00
1.500162e-02 2.993227e-03 0.000000e+00
1.500157e-02 2.993551e-03 0.000000e+00
1.500140e-02 2.993916e-03 0.000000e+00
1.500106e-02 2.994374e-03 0.000000e+00
1.500042e-02 2.994982e-03 0.000000e+00
1.499928e-02 2.995801e-03 0.000000e+00
1.499734e-02 2.996848e-03 0.000000e+00
1.499421e-02 2.997972e-03 0.000000e+00
1.498971e-02 2.998649e-03 0.000000e+00
1.498447e-02 2.997928e-03 0.000000e+00
1.498062e-02 2.995157e-03 0.000000e+00
1.498062e-02 2.991298e-03 0.000000e+00
1.498447e-02 2.988527e-03 0.000000e+00
1.498971e-02 2.987806e-03 0.000000e+00
1.499421e-02 2.988483e-03 0.000000e+00
1.499734e-02 2.989607e-03 0.000000e+00
1.499928e-02 2.990654e-03 0.000000e+00
1.500042e-02 2.991473e-03 0.000000e+00
1.500106e-02 2.992081e-03 0.000000e+00
1.500140e-02 2.992539e-03 0.000000e+00
1.500157e-02 2.992904e-03 0.000000e+00
1.500162e-02 2.993227e-03 0.000000e+00
1.600150e-02 2.993227e-03 0.000000e+00
1.600144e-02 2.993763e-03 0.000000e+00
1.600122e-02 2.994330e-03 0.000000e+00
1.600080e-02 2.994958e-03 0.000000e+00
1.600007e-02 2.995671e-03 0.000000e+00
1.599887e-02 2.996464e-03 0.000000e+00
1.599703e-02 2.997262e-03 0.000000e+00
1.599440e-02 2.997855e-03 0.000000e+00
1.599111e-02 2.997852e-03 0.000000e+00
1.598778e-02 2.996800e-03 0.000000e+00
1.598559e-02 2.994595e-03 0.000000e+00
1.598559e-02 2.991860e-03 0.000000e+00
1.598778e-02 2.989654e-03 0.000000e+00
1.599111e-02 2.988603e-03 0.000000e+00
1.599440e-02 2.988600e-03 0.000000e+00
1.599703e-02 2.989193e-03 0.000000e+00
1.599887e-02 2.989991e-03 0.000000e+00
1.600007e-02 2.990784e-03 0.000000e+00
1.600080e-02 2.991497e-03 0.000000e+00
1.600122e-02 2.992125e-03 0.000000e+00
1.600144e-02 2.992692e-03 0.000000e+00
1.600150e-02 2.993227e-03 0.000000e+00
1.700127e-02 2.993227e-03 0.000000e+00
1.700120e-02 2.993914e-03 0.000000e+00
1.700098e-02 2.994613e-03 0.000000e+00
1.700055e-02 2.995329e-03 0.000000e+00
1.699983e-02 2.996052e-03 0.000000e+00
1.699874e-02 2.996737e-03 0.000000e+00
1.699718e-02 2.997280e-03 0.000000e+00
1.699516e-02 2.997500e-03 0.000000e+00
1.699285e-02 2.997155e-03 0.000000e+00
1.699072e-02 2.996059e-03 0.000000e+00
1.698941e-02 2.994268e-03 0.000000e+00
1.698941e-02 2.992187e-03 0.000000e+00
1.699072e-02 2.990396e-03 0.000000e+00
1.699285e-02 2.989300e-03 0.000000e+00
1.699516e-02 2.988955e-03 0.000000e+00
1.699718e-02 2.989175e-03 0.000000e+00
1.699874e-02 2.989718e-03 0.000000e+00
1.699983e-02 2.990403e-03 0.000000e+00
1.700055e-02 2.991126e-03 0.000000e+00
1.700098e-02 2.991842e-03 0.000000e+00
1.700120e-02 2.992541e-03 0.000000e+00
1.700127e-02 2.993227e-03 0.000000e+00
1.800098e-02 2.993227e-03 0.000000e+00
1.800092e-02 2.994010e-03 0.000000e+00
1.800071e-02 2.994785e-03 0.000000e+00
1.800033e-02 2.995534e-03 0.000000e+00
1.799973e-02 2.996224e-03 0.000000e+00
1.799885e-02 2.996793e-03 0.000000e+00
1.799766e-02 2.997139e-03 0.000000e+00
1.799622e-02 2.997128e-03 0.000000e+00
1.799467e-02 2.996628e-03 0.000000e+00
1.799333e-02 2.995576e-03 0.000000e+00
1.799253e-02 2.994070e-03 0.000000e+00
1.799253e-02 2.992385e-03 0.000000e+00
1.799333e-02 2.990879e-03 0.000000e+00
1.799467e-02 2.989827e-03 0.000000e+00
1.799622e-02 2.989326e-03 0.000000e+00
1.799766e-02 2.989316e-03 0.000000e+00
1.799885e-02 2.989662e-03 0.000000e+00
1.799973e-02 2.990231e-03 0.000000e+00
1.800033e-02 2.990921e-03 0.000000e+00
1.800071e-02 2.991670e-03 0.000000e+00
1.800092e-02 2.992445e-03 0.000000e+00
1.800098e-02 2.993227e-03 0.000000e+00
1.900066e-02 2.993227e-03 0.000000e+00
1.900061e-02 2.994064e-03 0.000000e+00
1.900046e-02 2.994876e-03 0.000000e+00
1.900018e-02 2.995630e-03 0.000000e+00
1.899975e-02 2.996280e-03 0.000000e+00
1.899914e-02 2.996757e-03 0.000000e+00
1.899835e-02 2.996972e-03 0.000000e+00
1.899743e-02 2.996833e-03 0.000000e+00
1.899648e-02 2.996267e-03 0.000000e+00
1.899568e-02 2.995273e-03 0.000000e+00
1.899522e-02 2.993950e-03 0.000000e+00
1.899522e-02 2.992505e-03 0.000000e+00
1.899568e-02 2.991182e-03 0.000000e+00
1.899648e-02 2.990188e-03 0.000000e+00
1.899743e-02 2.989622e-03 0.000000e+00
1.899835e-02 2.989483e-03 0.000000e+00
1.899914e-02 2.989698e-03 0.000000e+00
1.899975e-02 2.990175e-03 0.000000e+00
1.900018e-02 2.990825e-03 0.000000e+00
1.900046e-02 2.991579e-03 0.000000e+00
1.900061e-02 2.992391e-03 0.000000e+00
1.900066e-02 2.993227e-03 0.000000e+00
2.000033e-02 2.993227e-03 0.000000e+00
2.000031e-02 2.994090e-03 0.000000e+00
2.000022e-02 2.994917e-03 0.000000e+00
2.000008e-02 2.995668e-03 0.000000e+00
1.999985e-02 2.996287e-03 0.000000e+00
1.999954e-02 2.996707e-03 0.000000e+00
1.999915e-02 2.996851e-03 0.000000e+00
1.999870e-02 2.996648e-03 0.000000e+00
1.999825e-02 2.996059e-03 0.000000e+00
1.999788e-02 2.995105e-03 0.000000e+00
1.999767e-02 2.993886e-03 0.000000e+00
1.999767e-02 2.992569e-03 0.000000e+00
1.999788e-02 2.991350e-03 0.000000e+00
1.999825e-02 2.990396e-03 0.000000e+00
1.999870e-02 2.989807e-03 0.000000e+00
1.999915e-02 2.989604e-03 0.000000e+00
1.999954e-02 2.989748e-03 0.000000e+00
1.999985e-02 2.990168e-03 0.000000e+00
2.000008e-02 2.990787e-03 0.000000e+00
2.000022e-02 2.991538e-03 0.000000e+00
2.000031e-02 2.992365e-03 0.000000e+00
2.000033e-02 2.993227e-03 0.000000e+00
2.100000e-02 2.993227e-03 0.000000e+00
2.100000e-02 2.994097e-03 0.000000e+00
2.100000e-02 2.994928e-03 0.000000e+00
2.100000e-02 2.995676e-03 0.000000e+00
2.100000e-02 2.996285e-03 0.000000e+00
2.100000e-02 2.996686e-03 0.000000e+00
2.100000e-02 2.996807e-03 0.000000e+00
2.100000e-02 2.996585e-03 0.000000e+00
2.100000e-02 2.995991e-03 0.000000e+00
2.100000e-02 2.995051e-03 0.000000e+00
2.100000e-02 2.993865e-03 0.000000e+00
2.100000e-02 2.992590e-03 0.000000e+00
2.100000e-02 2.991404e-03 0.000000e+00
2.100000e-02 2.990464e-03 0.000000e+00
2.100000e-02 2.989870e-03 0.000000e+00
2.100000e-02 2.989648e-03 0.000000e+00
2.100000e-02 2.989769e-03 0.000000e+00
2.100000e-02 2.990170e-03 0.000000e+00
2.100000e-02 2.990779e-03 0.000000e+00
2.100000e-02 2.991526e-03 0.000000e+00
2.100000e-02 2.992358e-03 0.000000e+00
2.100000e-02 2.993227e-03 0.000000e+00

CELL_DATA 441
SCALARS mat_id int 1
LOOKUP_TABLE default
0
0
0
0
0
0
0
0
0