ITEM: TIMESTEP
0
ITEM: NUMBER OF ATOMS
232
ITEM: BOX BOUNDS pp pp pp
-66.01609802 66.01609802
-66.01609802 66.01609802
-66.01609802 66.01609802
ITEM: ATOMS id x y z type c_eng
45637 -6.548749924 -0.1074789986 -9.88904953 2 -7.691989899
14398 -5.097109795 -2.022089958 -8.507969856 2 -7.429080009
45639 -3.186229944 -0.7008849978 -10.1257 2 -7.193900108
15160 -1.461449981 -5.523499966 -5.455770016 2 -7.486199856
46437 -6.905189991 -1.102290034 -6.574840069 2 -7.029650211
46439 -3.474790096 -0.9413509965 -6.724750042 2 -7.418660164
15200 -1.62124002 -2.690540075 -5.174389839 2 -7.421309948
15918 -4.896570206 -8.638380051 -1.921640038 2 -7.497560024
15920 -1.494189978 -8.716560364 -2.009759903 2 -7.496029854
16719 -3.230550051 -10.26290035 -0.1875080019 2 -7.521689892
16757 -6.875810146 -7.139800072 -0.005258790217 2 -7.521850109
15958 -5.210430145 -5.694109917 -1.741739988 2 -7.471179962
15999 -3.470769882 -4.231679916 -3.440510035 2 -7.436999798
15959 -3.172139883 -7.095670223 -3.728780031 2 -7.480090141
15960 -2.347759962 -6.265140057 -1.242830038 2 -7.282310009
128008 -0.7189419866 -4.907710075 -2.853199959 2 -7.290740013
47235 -10.19589996 -0.4451430142 -3.538820028 2 -7.162590027
15996 -8.687140465 -2.28718996 -1.640140057 2 -7.531340122
15998 -5.346839905 -2.718290091 -1.589259982 2 -7.504970074
128001 -0.4590249956 -1.835270047 -2.801500082 2 -7.323820114
128002 -2.200330019 -3.196860075 -1.259299994 2 -7.347109795
16000 -3.507869959 -1.403789997 -3.217780113 2 -7.443339825
17477 -6.736539841 -13.47840023 3.2885499 2 -7.496560097
16678 -4.966989994 -11.80300045 1.671049953 2 -7.583690166
17479 -3.382380009 -13.45030022 3.339829922 2 -7.554160118
16680 -1.616099954 -11.8380003 1.575790048 2 -7.542910099
16718 -5.456820011 -8.987270355 2.047840118 2 -7.298900127
17517 -7.073729992 -10.38599968 3.597349882 2 -7.404650211
17519 -3.926620007 -10.78429985 4.00507021 2 -7.089819908
16720 -2.465440035 -9.392860413 2.383620024 2 -7.215260029
80761 -0.9098680019 -8.060370445 0.7680490017 2 -7.305409908
16759 -3.91395998 -7.640019894 0.3975630105 2 -7.283510208
16799 -3.925280094 -4.508979797 0.3299250007 2 -7.392690182
81521 -0.743227005 -7.685060024 3.971479893 2 -7.299550056
48835 -10.14869976 -0.0983479023 3.423199892 2 -7.551849842
16796 -8.76718998 -2.429330111 1.625890017 2 -7.140180111
48035 -9.903820038 -0.1701630056 0.447055012 2 -7.430900097
16798 -7.421770096 -0.7762680054 3.116590023 2 -7.131000042
48037 -7.101570129 -0.8504840136 0.02012999915 2 -7.472439766
128012 -3.837709904 -1.171049953 3.443900108 2 -7.414669991
17478 -5.674260139 -12.10509968 5.334199905 2 -7.058209896
18279 -3.370609999 -13.22399998 6.477290154 2 -7.588319778
82241 -0.09525489807 -13.38230038 6.618299961 2 -7.540269852
18319 -3.906140089 -10.46689987 7.069210052 2 -7.437009811
17480 -1.398329973 -11.5092001 4.7073102 2 -7.517749786
82281 -0.7771040201 -10.81589985 7.305669785 2 -7.148970127
17520 -2.346280098 -8.97865963 5.564760208 2 -7.315559864
49637 -6.932489872 -0.03502070159 6.726019859 2 -7.55753994
48839 -4.160039902 -0.5736610293 6.382460117 2 -7.254419804
17600 -0.3629870117 -1.229110003 6.870250225 2 -7.292319775
18278 -5.470510006 -11.98029995 8.617879868 2 -7.546559811
18240 -1.792099953 -15.00489998 8.320389748 2 -7.598010063
19079 -3.75316 -13.62629986 10.37899971 2 -7.147920132
18280 -2.399379969 -12.14319992 8.794910431 2 -6.980700016
83041 -0.1155090034 -13.23519993 9.87322998 2 -7.613699913
83081 -0.6393280029 -10.30140018 10.31960011 2 -7.256999969
83121 -0.8179360032 -7.048230171 10.4211998 2 -7.248250008
114401 -0.5617790222 -0.2835940123 9.940440178 2 -7.498099804
18400 -2.301229954 -2.094899893 8.478409767 2 -7.53662014
44838 -4.84100008 1.620090008 -11.64089966 2 -7.498980045
45677 -6.483930111 3.271970034 -9.959340096 2 -7.60848999
45638 -4.014810085 1.517269969 -9.02589035 2 -7.10503006
44840 -1.649719954 1.648450017 -11.27740002 2 -7.810259819
44878 -4.949590206 5.120610237 -11.63379955 2 -7.510690212
45717 -6.741889954 6.760179996 -10.0085001 2 -7.391429901
45678 -4.779019833 5.965789795 -8.455129623 2 -6.963170052
45679 -3.286799908 3.914400101 -9.886610031 2 -7.426569939
45719 -3.09555006 7.07461977 -10.11769962 2 -7.359620094
45680 -1.430240035 5.7197299 -8.369310379 2 -7.484590054
45718 -4.989059925 8.731760025 -8.315629959 2 -7.543149948
45636 -8.342700005 1.601359963 -8.194430351 2 -7.588819981
46436 -8.395730019 0.8925070167 -5.083889961 2 -7.465229988
46475 -9.994520187 3.269939899 -6.512929916 2 -7.489099979
47239 -5.097089767 0.3052439988 -4.784570217 2 -7.305170059
46438 -5.891980171 1.156960011 -7.240320206 2 -6.986969948
47279 -4.815480232 3.06137991 -4.749929905 2 -7.21807003
46477 -7.383309841 3.291359901 -5.651040077 2 -7.108650208
46479 -5.567039967 3.741559982 -7.491230011 2 -6.992280006
45640 -1.361269951 2.953360081 -8.228289604 2 -6.950099945
128022 -1.705500007 0.01128469966 -4.804190159 2 -7.457260132
110401 -1.470119953 0.3281340003 -8.198320389 2 -6.939310074
46440 -3.147540092 1.756340027 -6.447979927 2 -7.210559845
45676 -8.173359871 4.985919952 -8.160140038 2 -7.68558979
46476 -8.395409584 5.562310219 -4.828100204 2 -7.234670162
46478 -5.019139767 5.768249989 -4.992060184 2 -7.528890133
46517 -6.729219913 6.890620232 -6.687009811 2 -7.45675993
128017 -3.058290005 4.476469994 -6.611670017 2 -7.264530182
47234 -11.56989956 1.582149982 -1.59781003 2 -7.593780041
47236 -8.884180069 0.9005810022 -1.744899988 2 -6.941400051
47275 -9.652810097 3.239310026 -3.317420006 2 -7.751060009
47238 -6.74105978 1.762099981 -3.131750107 2 -6.988019943
128020 -4.753210068 3.175430059 -1.47823 2 -7.228600025
48077 -6.895189762 1.913149953 -0.3603889942 2 -6.942379951
47276 -8.496159554 5.414299965 -1.48495996 2 -7.189290047
47277 -6.601650238 4.415810108 -3.022399902 2 -7.122200012
48036 -8.137439728 1.853090048 2.001519918 2 -7.666429996
48075 -9.742899895 3.282350063 0.06337279826 2 -7.676479816
48038 -5.071609974 3.005399942 1.77414 2 -7.185070038
128024 -5.31069994 0.3168630004 1.659489989 2 -7.257319927
48877 -6.592609882 3.768270016 3.788640022 2 -7.48706007
128030 -3.481519938 1.624199986 3.50999999 2 -7.181109905
48079 -6.66079998 4.47728014 0.2198089957 2 -7.00221014
48879 -3.307699919 4.3791399 3.69698 2 -7.367340088
48836 -8.584549904 1.639350057 5.080180168 2 -7.485439777
48837 -6.033259869 1.025509953 4.340600014 2 -7.11289978
48838 -4.495530128 2.409100056 5.927539825 2 -7.188829899
49677 -6.866889954 3.380709887 6.776400089 2 -7.519030094
48840 -1.550140023 2.948760033 5.297929764 2 -7.253799915
49639 -2.601670027 0.9741150141 7.777929783 2 -7.19656992
128027 -1.874760032 0.2073320001 5.15749979 2 -7.190889835
48878 -5.039040089 5.479370117 5.394649982 2 -7.491529942
49679 -2.981250048 3.988820076 7.317440033 2 -7.175330162
49638 -5.211999893 1.68374002 8.498379707 2 -7.513269901
50439 -3.546789885 0.01117159985 10.14089966 2 -7.530720234
49640 -1.014670014 2.350769997 9.282910347 2 -6.977739811
50440 -1.741960049 1.768560052 11.84130001 2 -7.492010117
50479 -3.396790028 3.419280052 10.10420036 2 -7.580090046
49678 -5.135159969 5.097980022 8.457509995 2 -7.527929783
49680 -1.505110025 5.619390011 8.728630066 2 -7.315899849
50480 -1.796720028 5.139770031 11.79950047 2 -7.474199772
78328 11.98110008 -5.495810032 -8.691060066 2 -7.326250076
109603 3.411740065 -0.08590169996 -10.26469994 2 -7.484069824
78362 1.946730018 -2.133169889 -8.854359627 2 -7.361720085
109601 0.2092829943 -0.3094240129 -10.16839981 2 -7.376470089
109605 6.557439804 -0.06426919997 -10.11279964 2 -7.578380108
78364 5.296470165 -2.394870043 -8.883799553 2 -7.267029762
77566 8.36345005 -1.762279987 -11.79909992 2 -7.563089848
78367 10.24230003 -3.748960018 -10.32289982 2 -7.36055994
78366 8.666500092 -2.25357008 -8.871239662 2 -7.186830044
79161 0.3036319911 -3.914060116 -7.122570038 2 -7.487770081
79167 10.47200012 -4.00770998 -7.178959846 2 -7.208670139
79128 12.05780029 -5.698740005 -5.445950031 2 -7.225830078
79130 14.94130039 -5.09469986 -5.014870167 2 -7.595049858
128031 1.253469944 -0.3965350091 -4.332900047 2 -7.368390083
79961 0.9407439828 -3.509919882 -4.429810047 2 -7.275159836
79162 0.4745880067 -1.039759994 -6.89455986 2 -7.336939812
111203 2.735080004 -2.114279985 -5.842879772 2 -7.130700111
111205 7.613570213 -0.6894419789 -4.411930084 2 -7.296040058
110403 3.982700109 -0.5333750248 -7.64151001 2 -7.150690079
110405 7.201330185 -0.5887299776 -7.538730145 2 -7.083220005
78368 11.50020027 -1.678040028 -8.224209785 2 -7.587480068
79166 8.96337986 -2.348999977 -5.88725996 2 -7.22217989
79168 11.42689991 -1.47202003 -4.949399948 2 -7.545090199
79169 13.20880032 -3.434079885 -6.589260101 2 -7.60048008
79888 11.9769001 -8.766360283 -2.022459984 2 -7.542359829
79962 2.387870073 -5.381800175 -2.540669918 2 -7.512229919
79921 0.2646369934 -7.191599846 -3.812849998 2 -7.461430073
79922 0.7191259861 -6.774970055 -0.8959360123 2 -7.456820011
80727 10.46440029 -7.151979923 -0.502737999 2 -7.481269836
80767 10.82190037 -4.110410213 -0.9294170141 2 -7.16203022
79967 10.66450024 -3.981659889 -4.07818985 2 -7.260059834
79930 14.99269962 -5.055779934 -1.774090052 2 -7.578139782
79929 13.71220016 -7.257480145 -3.78350997 2 -7.039509773
79928 12.30220032 -5.652369976 -2.372580051 2 -7.036729813
79968 11.44009972 -1.409980059 -1.658290029 2 -7.618370056
79966 9.098959923 -2.412499905 -2.734430075 2 -7.243989944
79969 13.22879982 -3.264130116 -3.337709904 2 -7.517879963
80769 13.26019955 -3.287149906 -0.08970919997 2 -7.55656004
81481 0.3814919889 -9.958080292 2.889909983 2 -7.604259968
80688 11.94229984 -8.71282959 1.294499993 2 -7.201539993
81524 5.87003994 -5.228809834 3.909290075 2 -7.213150024
80726 8.904660225 -5.580140114 0.9269729853 2 -7.326310158
81527 10.48620033 -7.141079903 2.771120071 2 -7.125579834
80728 11.42179966 -4.731949806 1.760969996 2 -7.565949917
81529 13.33670044 -6.616960049 3.184190035 2 -7.587689877
80729 13.22859955 -6.610370159 0.004194399808 2 -7.514180183
81565 7.619150162 -3.812439919 2.36461997 2 -7.221310139
80766 9.387840271 -2.485899925 0.499830991 2 -7.29625988
81567 9.840149879 -2.809459925 3.539849997 2 -7.496280193
81442 1.730810046 -11.6541996 4.868579865 2 -7.60600996
81482 0.7699909806 -9.310370445 5.865439892 2 -7.255949974
82283 3.557729959 -9.934189796 6.41821003 2 -7.580420017
82242 1.732200027 -11.58209991 8.163629532 2 -7.54087019
82284 5.300549984 -8.240329742 8.048729897 2 -7.540040016
81486 8.592089653 -8.495659828 4.710140228 2 -7.542640209
82323 2.676559925 -7.528170109 7.395760059 2 -7.087049961
82363 2.677409887 -4.597929955 7.327040195 2 -7.454239845
81523 4.312419891 -6.39195013 5.724060059 2 -7.171470165
82325 7.056240082 -6.752299786 6.290100098 2 -7.48789978
82365 7.5395298 -4.068470001 5.751840115 2 -7.143109798
82324 5.23788023 -5.046710014 8.179369926 2 -7.648210049
81526 9.099379539 -5.427130222 4.146639824 2 -7.197080135
82327 9.989190102 -6.474840164 6.529620171 2 -7.566470146
81528 11.7184 -4.885789871 4.870079994 2 -7.546589851
81562 2.991549969 -1.644870043 6.806280136 2 -7.201029778
81563 4.475999832 -3.510809898 5.558859825 2 -7.386680126
81564 6.29008007 -2.278539896 7.181009769 2 -7.293320179
81566 8.348719597 -1.067270041 5.201310158 2 -7.545209885
82367 9.982270241 -3.137500048 6.594930172 2 -7.586840153
83042 1.577119946 -11.46459961 11.43179989 2 -7.600900173
82282 1.070539951 -8.948869705 8.889630318 2 -7.250130177
83082 1.449040055 -8.285420418 11.59529972 2 -7.609660149
83083 3.503420115 -9.832360268 9.75345993 2 -7.55366993
82322 0.9264730215 -5.810760021 8.932109833 2 -7.40515995
83122 0.9879490137 -5.273849964 11.95559978 2 -7.090720177
83123 3.377449989 -6.735010147 9.93103981 2 -7.496109962
83163 2.793149948 -4.149330139 10.53660011 2 -6.916679859
83124 5.202579975 -4.83258009 11.45810032 2 -7.48195982
82326 8.295430183 -4.743559837 8.329190254 2 -7.528019905
113601 1.738430023 -0.05905019864 8.644769669 2 -7.173039913
82362 1.113929987 -2.694439888 8.617300034 2 -7.247459888
83162 1.586789966 -1.639879942 11.44919968 2 -7.749489784
82364 4.063539982 -2.479909897 9.119409561 2 -7.08494997
113603 5.137969971 -0.2309550047 8.440309525 2 -6.901889801
83164 4.90625 -1.528450012 11.59389973 2 -7.610429764
83165 6.704800129 -2.988780022 9.960659981 2 -7.47052002
83923 3.21352005 -6.492640018 13.08230019 2 -7.667200089
83963 3.173010111 -3.279779911 13.24030018 2 -7.576920033
109641 0.2652910054 3.639709949 -10.1310997 2 -7.179210186
109602 1.6523 1.687540054 -8.481869698 2 -7.638470173
109604 4.949429989 1.926319957 -8.388750076 2 -7.530759811
109607 9.780929565 0.03631789982 -9.85381031 2 -7.569449902
111201 0.09788069874 1.543009996 -6.203269958 2 -7.025109768
110402 2.842710018 1.157850027 -6.014110088 2 -7.248109818
110443 3.359760046 3.792700052 -6.671110153 2 -7.560750008
110404 5.964839935 1.067250013 -6.01515007 2 -7.052929878
111243 4.768899918 2.761640072 -4.466370106 2 -7.224299908
110445 6.605010033 3.813469887 -6.580230236 2 -7.555860043
109606 8.15293026 1.93877995 -8.223270416 2 -7.567389965
110407 9.749409676 0.241407007 -6.601520061 2 -7.557960033
110441 0.3093509972 4.218269825 -6.52038002 2 -7.323599815
112801 0.0573439002 1.470610023 6.958030224 2 -7.179540157
113641 0.1661549956 4.306029797 7.030970097 2 -7.490069866
114403 3.557849884 0.620848 10.40610027 2 -7.127220154
113602 1.853010058 2.661839962 8.660129547 2 -7.293680191
114402 1.375339985 1.777070045 11.51029968 2 -7.654349804
114404 5.282030106 1.994089961 11.80879974 2 -7.295559883
114442 1.955919981 5.383069992 11.98919964 2 -7.211540222
114481 0.102899 7.161690235 10.24880028 2 -7.478499889
114441 0.2748039961 4.241000175 10.40569973 2 -6.970059872
115241 0.01536449976 3.440740108 13.37139988 2 -7.568840027
115203 3.251749992 0.0984537974 13.25959969 2 -7.594279766
