TITLE ="t=0.000000" 
VARIABLES = "x"  "y"          "phi" 
ZONE N=10201, E=10000, F=FEPOINT, ET=QUADRILATERAL
0 0 0
0.01 0 0
0.02 0 0
0.03 0 0
0.04 0 0
0.05 0 0
0.06 0 0
0.07 0 1
0.08 0 1
0.09 0 1
0.1 0 1
0.11 0 1
0.12 0 0
0.13 0 0
0.14 0 0
0.15 0 0
0.16 0 0
0.17 0 0
0.18 0 0
0.19 0 0
0.2 0 0
0.21 0 0
0.22 0 0
0.23 0 0
0.24 0 1
0.25 0 1
0.26 0 1
0.27 0 1
0.28 0 1
0.29 0 1
0.3 0 1
0.31 0 1
0.32 0 1
0.33 0 1
0.34 0 1
0.35 0 1
0.36 0 1
0.37 0 1
0.38 0 1
0.39 0 1
0.4 0 1
0.41 0 1
0.42 0 1
0.43 0 1
0.44 0 1
0.45 0 0
0.46 0 0
0.47 0 0
0.48 0 0
0.49 0 0
0.5 0 0
0.51 0 0
0.52 0 0
0.53 0 0
0.54 0 0
0.55 0 0
0.56 0 0
0.57 0 0
0.58 0 0
0.59 0 0
0.6 0 0
0.61 0 1
0.62 0 1
0.63 0 1
0.64 0 1
0.65 0 1
0.66 0 1
0.67 0 1
0.68 0 1
0.69 0 1
0.7 0 1
0.71 0 1
0.72 0 0
0.73 0 0
0.74 0 1
0.75 0 1
0.76 0 1
0.77 0 1
0.78 0 1
0.79 0 1
0.8 0 1
0.81 0 1
0.82 0 1
0.83 0 1
0.84 0 1
0.85 0 1
0.86 0 1
0.87 0 1
0.88 0 1
0.89 0 1
0.9 0 1
0.91 0 1
0.92 0 0
0.93 0 0
0.94 0 0
0.95 0 0
0.96 0 0
0.97 0 0
0.98 0 0
0.99 0 0
1 0 0
0 0.01 0
0.01 0.01 0
0.02 0.01 0
0.03 0.01 0
0.04 0.01 0
0.05 0.01 0
0.06 0.01 0
0.07 0.01 0
0.08 0.01 0
0.09 0.01 0
0.1 0.01 0
0.11 0.01 0
0.12 0.01 0
0.13 0.01 0
0.14 0.01 0
0.15 0.01 0
0.16 0.01 0
0.17 0.01 0
0.18 0.01 0
0.19 0.01 0
0.2 0.01 0
0.21 0.01 0
0.22 0.01 0
0.23 0.01 0
0.24 0.01 1
0.25 0.01 1
0.26 0.01 1
0.27 0.01 1
0.28 0.01 1
0.29 0.01 1
0.3 0.01 1
0.31 0.01 1
0.32 0.01 1
0.33 0.01 1
0.34 0.01 1
0.35 0.01 1
0.36 0.01 1
0.37 0.01 1
0.38 0.01 1
0.39 0.01 1
0.4 0.01 1
0.41 0.01 1
0.42 0.01 1
0.43 0.01 1
0.44 0.01 1
0.45 0.01 1
0.46 0.01 1
0.47 0.01 1
0.48 0.01 1
0.49 0.01 0
0.5 0.01 0
0.51 0.01 0
0.52 0.01 0
0.53 0.01 0
0.54 0.01 0
0.55 0.01 0
0.56 0.01 0
0.57 0.01 0
0.58 0.01 0
0.59 0.01 0
0.6 0.01 0
0.61 0.01 0
0.62 0.01 0
0.63 0.01 0
0.64 0.01 0
0.65 0.01 0
0.66 0.01 0
0.67 0.01 0
0.68 0.01 0
0.69 0.01 0
0.7 0.01 0
0.71 0.01 0
0.72 0.01 0
0.73 0.01 0
0.74 0.01 0
0.75 0.01 0
0.76 0.01 0
0.77 0.01 1
0.78 0.01 1
0.79 0.01 1
0.8 0.01 1
0.81 0.01 1
0.82 0.01 1
0.83 0.01 1
0.84 0.01 1
0.85 0.01 1
0.86 0.01 1
0.87 0.01 1
0.88 0.01 1
0.89 0.01 1
0.9 0.01 1
0.91 0.01 0
0.92 0.01 0
0.93 0.01 0
0.94 0.01 0
0.95 0.01 0
0.96 0.01 0
0.97 0.01 0
0.98 0.01 0
0.99 0.01 0
1 0.01 0
0 0.02 0
0.01 0.02 0
0.02 0.02 0
0.03 0.02 0
0.04 0.02 0
0.05 0.02 0
0.06 0.02 0
0.07 0.02 0
0.08 0.02 0
0.09 0.02 0
0.1 0.02 0
0.11 0.02 0
0.12 0.02 0
0.13 0.02 0
0.14 0.02 0
0.15 0.02 0
0.16 0.02 0
0.17 0.02 0
0.18 0.02 0
0.19 0.02 0
0.2 0.02 0
0.21 0.02 0
0.22 0.02 0
0.23 0.02 1
0.24 0.02 1
0.25 0.02 1
0.26 0.02 1
0.27 0.02 1
0.28 0.02 1
0.29 0.02 1
0.3 0.02 1
0.31 0.02 1
0.32 0.02 1
0.33 0.02 1
0.34 0.02 1
0.35 0.02 1
0.36 0.02 1
0.37 0.02 1
0.38 0.02 1
0.39 0.02 1
0.4 0.02 1
0.41 0.02 1
0.42 0.02 1
0.43 0.02 1
0.44 0.02 1
0.45 0.02 1
0.46 0.02 1
0.47 0.02 1
0.48 0.02 1
0.49 0.02 1
0.5 0.02 1
0.51 0.02 1
0.52 0.02 0
0.53 0.02 0
0.54 0.02 0
0.55 0.02 0
0.56 0.02 0
0.57 0.02 0
0.58 0.02 0
0.59 0.02 0
0.6 0.02 0
0.61 0.02 0
0.62 0.02 0
0.63 0.02 0
0.64 0.02 0
0.65 0.02 0
0.66 0.02 0
0.67 0.02 0
0.68 0.02 0
0.69 0.02 0
0.7 0.02 0
0.71 0.02 0
0.72 0.02 0
0.73 0.02 0
0.74 0.02 0
0.75 0.02 0
0.76 0.02 0
0.77 0.02 0
0.78 0.02 0
0.79 0.02 1
0.8 0.02 1
0.81 0.02 1
0.82 0.02 1
0.83 0.02 1
0.84 0.02 1
0.85 0.02 1
0.86 0.02 1
0.87 0.02 1
0.88 0.02 1
0.89 0.02 1
0.9 0.02 1
0.91 0.02 0
0.92 0.02 0
0.93 0.02 0
0.94 0.02 0
0.95 0.02 0
0.96 0.02 0
0.97 0.02 0
0.98 0.02 0
0.99 0.02 0
1 0.02 0
0 0.03 0
0.01 0.03 0
0.02 0.03 0
0.03 0.03 0
0.04 0.03 0
0.05 0.03 0
0.06 0.03 0
0.07 0.03 0
0.08 0.03 0
0.09 0.03 0
0.1 0.03 0
0.11 0.03 0
0.12 0.03 0
0.13 0.03 0
0.14 0.03 0
0.15 0.03 0
0.16 0.03 0
0.17 0.03 0
0.18 0.03 0
0.19 0.03 0
0.2 0.03 0
0.21 0.03 0
0.22 0.03 1
0.23 0.03 1
0.24 0.03 1
0.25 0.03 1
0.26 0.03 1
0.27 0.03 1
0.28 0.03 1
0.29 0.03 1
0.3 0.03 1
0.31 0.03 1
0.32 0.03 1
0.33 0.03 1
0.34 0.03 1
0.35 0.03 1
0.36 0.03 1
0.37 0.03 1
0.38 0.03 1
0.39 0.03 1
0.4 0.03 1
0.41 0.03 1
0.42 0.03 1
0.43 0.03 1
0.44 0.03 1
0.45 0.03 1
0.46 0.03 1
0.47 0.03 1
0.48 0.03 1
0.49 0.03 1
0.5 0.03 1
0.51 0.03 1
0.52 0.03 1
0.53 0.03 1
0.54 0.03 0
0.55 0.03 0
0.56 0.03 0
0.57 0.03 0
0.58 0.03 0
0.59 0.03 0
0.6 0.03 0
0.61 0.03 0
0.62 0.03 0
0.63 0.03 0
0.64 0.03 0
0.65 0.03 0
0.66 0.03 0
0.67 0.03 0
0.68 0.03 0
0.69 0.03 0
0.7 0.03 0
0.71 0.03 0
0.72 0.03 0
0.73 0.03 0
0.74 0.03 0
0.75 0.03 0
0.76 0.03 0
0.77 0.03 0
0.78 0.03 0
0.79 0.03 0
0.8 0.03 1
0.81 0.03 1
0.82 0.03 1
0.83 0.03 1
0.84 0.03 1
0.85 0.03 1
0.86 0.03 1
0.87 0.03 1
0.88 0.03 1
0.89 0.03 1
0.9 0.03 1
0.91 0.03 0
0.92 0.03 0
0.93 0.03 0
0.94 0.03 0
0.95 0.03 0
0.96 0.03 0
0.97 0.03 0
0.98 0.03 0
0.99 0.03 0
1 0.03 0
0 0.04 0
0.01 0.04 0
0.02 0.04 0
0.03 0.04 0
0.04 0.04 0
0.05 0.04 0
0.06 0.04 0
0.07 0.04 0
0.08 0.04 0
0.09 0.04 0
0.1 0.04 0
0.11 0.04 0
0.12 0.04 0
0.13 0.04 0
0.14 0.04 0
0.15 0.04 0
0.16 0.04 0
0.17 0.04 0
0.18 0.04 0
0.19 0.04 0
0.2 0.04 0
0.21 0.04 0
0.22 0.04 1
0.23 0.04 1
0.24 0.04 1
0.25 0.04 1
0.26 0.04 1
0.27 0.04 1
0.28 0.04 1
0.29 0.04 1
0.3 0.04 1
0.31 0.04 1
0.32 0.04 1
0.33 0.04 1
0.34 0.04 1
0.35 0.04 0
0.36 0.04 0
0.37 0.04 0
0.38 0.04 0
0.39 0.04 0
0.4 0.04 0
0.41 0.04 1
0.42 0.04 1
0.43 0.04 1
0.44 0.04 1
0.45 0.04 1
0.46 0.04 1
0.47 0.04 1
0.48 0.04 1
0.49 0.04 1
0.5 0.04 1
0.51 0.04 1
0.52 0.04 1
0.53 0.04 1
0.54 0.04 1
0.55 0.04 0
0.56 0.04 0
0.57 0.04 0
0.58 0.04 0
0.59 0.04 0
0.6 0.04 0
0.61 0.04 0
0.62 0.04 0
0.63 0.04 0
0.64 0.04 0
0.65 0.04 0
0.66 0.04 0
0.67 0.04 0
0.68 0.04 0
0.69 0.04 0
0.7 0.04 0
0.71 0.04 0
0.72 0.04 0
0.73 0.04 0
0.74 0.04 0
0.75 0.04 0
0.76 0.04 0
0.77 0.04 0
0.78 0.04 0
0.79 0.04 0
0.8 0.04 0
0.81 0.04 1
0.82 0.04 1
0.83 0.04 1
0.84 0.04 1
0.85 0.04 1
0.86 0.04 1
0.87 0.04 1
0.88 0.04 1
0.89 0.04 1
0.9 0.04 0
0.91 0.04 0
0.92 0.04 0
0.93 0.04 0
0.94 0.04 0
0.95 0.04 0
0.96 0.04 0
0.97 0.04 0
0.98 0.04 0
0.99 0.04 0
1 0.04 0
0 0.05 0
0.01 0.05 0
0.02 0.05 0
0.03 0.05 0
0.04 0.05 0
0.05 0.05 0
0.06 0.05 0
0.07 0.05 0
0.08 0.05 0
0.09 0.05 0
0.1 0.05 0
0.11 0.05 0
0.12 0.05 0
0.13 0.05 0
0.14 0.05 0
0.15 0.05 0
0.16 0.05 0
0.17 0.05 0
0.18 0.05 0
0.19 0.05 0
0.2 0.05 0
0.21 0.05 0
0.22 0.05 1
0.23 0.05 1
0.24 0.05 1
0.25 0.05 1
0.26 0.05 1
0.27 0.05 1
0.28 0.05 1
0.29 0.05 1
0.3 0.05 1
0.31 0.05 1
0.32 0.05 1
0.33 0.05 0
0.34 0.05 0
0.35 0.05 0
0.36 0.05 0
0.37 0.05 0
0.38 0.05 0
0.39 0.05 0
0.4 0.05 0
0.41 0.05 0
0.42 0.05 0
0.43 0.05 1
0.44 0.05 1
0.45 0.05 1
0.46 0.05 1
0.47 0.05 1
0.48 0.05 1
0.49 0.05 1
0.5 0.05 1
0.51 0.05 1
0.52 0.05 1
0.53 0.05 1
0.54 0.05 1
0.55 0.05 1
0.56 0.05 1
0.57 0.05 0
0.58 0.05 0
0.59 0.05 0
0.6 0.05 0
0.61 0.05 0
0.62 0.05 0
0.63 0.05 0
0.64 0.05 0
0.65 0.05 0
0.66 0.05 0
0.67 0.05 0
0.68 0.05 0
0.69 0.05 0
0.7 0.05 0
0.71 0.05 0
0.72 0.05 0
0.73 0.05 0
0.74 0.05 0
0.75 0.05 0
0.76 0.05 0
0.77 0.05 0
0.78 0.05 0
0.79 0.05 0
0.8 0.05 0
0.81 0.05 0
0.82 0.05 0
0.83 0.05 1
0.84 0.05 1
0.85 0.05 1
0.86 0.05 1
0.87 0.05 1
0.88 0.05 1
0.89 0.05 0
0.9 0.05 0
0.91 0.05 0
0.92 0.05 0
0.93 0.05 0
0.94 0.05 0
0.95 0.05 0
0.96 0.05 0
0.97 0.05 0
0.98 0.05 0
0.99 0.05 0
1 0.05 0
0 0.06 1
0.01 0.06 1
0.02 0.06 1
0.03 0.06 1
0.04 0.06 1
0.05 0.06 1
0.06 0.06 1
0.07 0.06 1
0.08 0.06 1
0.09 0.06 1
0.1 0.06 1
0.11 0.06 0
0.12 0.06 0
0.13 0.06 0
0.14 0.06 0
0.15 0.06 0
0.16 0.06 0
0.17 0.06 0
0.18 0.06 0
0.19 0.06 0
0.2 0.06 0
0.21 0.06 0
0.22 0.06 1
0.23 0.06 1
0.24 0.06 1
0.25 0.06 1
0.26 0.06 1
0.27 0.06 1
0.28 0.06 1
0.29 0.06 1
0.3 0.06 1
0.31 0.06 1
0.32 0.06 0
0.33 0.06 0
0.34 0.06 0
0.35 0.06 0
0.36 0.06 0
0.37 0.06 0
0.38 0.06 0
0.39 0.06 0
0.4 0.06 0
0.41 0.06 0
0.42 0.06 0
0.43 0.06 0
0.44 0.06 1
0.45 0.06 1
0.46 0.06 1
0.47 0.06 1
0.48 0.06 1
0.49 0.06 1
0.5 0.06 1
0.51 0.06 1
0.52 0.06 1
0.53 0.06 1
0.54 0.06 1
0.55 0.06 1
0.56 0.06 1
0.57 0.06 1
0.58 0.06 0
0.59 0.06 0
0.6 0.06 0
0.61 0.06 0
0.62 0.06 0
0.63 0.06 0
0.64 0.06 0
0.65 0.06 0
0.66 0.06 0
0.67 0.06 0
0.68 0.06 0
0.69 0.06 0
0.7 0.06 0
0.71 0.06 0
0.72 0.06 0
0.73 0.06 0
0.74 0.06 0
0.75 0.06 0
0.76 0.06 0
0.77 0.06 0
0.78 0.06 0
0.79 0.06 0
0.8 0.06 0
0.81 0.06 0
0.82 0.06 0
0.83 0.06 0
0.84 0.06 0
0.85 0.06 0
0.86 0.06 0
0.87 0.06 0
0.88 0.06 0
0.89 0.06 0
0.9 0.06 0
0.91 0.06 0
0.92 0.06 0
0.93 0.06 0
0.94 0.06 0
0.95 0.06 0
0.96 0.06 0
0.97 0.06 0
0.98 0.06 0
0.99 0.06 0
1 0.06 1
0 0.07 1
0.01 0.07 1
0.02 0.07 1
0.03 0.07 1
0.04 0.07 1
0.05 0.07 1
0.06 0.07 1
0.07 0.07 1
0.08 0.07 1
0.09 0.07 1
0.1 0.07 1
0.11 0.07 1
0.12 0.07 1
0.13 0.07 0
0.14 0.07 0
0.15 0.07 0
0.16 0.07 0
0.17 0.07 0
0.18 0.07 0
0.19 0.07 0
0.2 0.07 0
0.21 0.07 0
0.22 0.07 0
0.23 0.07 1
0.24 0.07 1
0.25 0.07 1
0.26 0.07 1
0.27 0.07 1
0.28 0.07 1
0.29 0.07 1
0.3 0.07 0
0.31 0.07 0
0.32 0.07 0
0.33 0.07 0
0.34 0.07 0
0.35 0.07 0
0.36 0.07 0
0.37 0.07 0
0.38 0.07 0
0.39 0.07 0
0.4 0.07 0
0.41 0.07 0
0.42 0.07 0
0.43 0.07 0
0.44 0.07 0
0.45 0.07 0
0.46 0.07 1
0.47 0.07 1
0.48 0.07 1
0.49 0.07 1
0.5 0.07 1
0.51 0.07 1
0.52 0.07 1
0.53 0.07 1
0.54 0.07 1
0.55 0.07 1
0.56 0.07 1
0.57 0.07 1
0.58 0.07 1
0.59 0.07 0
0.6 0.07 0
0.61 0.07 0
0.62 0.07 0
0.63 0.07 0
0.64 0.07 0
0.65 0.07 0
0.66 0.07 0
0.67 0.07 0
0.68 0.07 0
0.69 0.07 0
0.7 0.07 0
0.71 0.07 0
0.72 0.07 0
0.73 0.07 0
0.74 0.07 0
0.75 0.07 0
0.76 0.07 0
0.77 0.07 0
0.78 0.07 0
0.79 0.07 0
0.8 0.07 0
0.81 0.07 0
0.82 0.07 0
0.83 0.07 0
0.84 0.07 0
0.85 0.07 0
0.86 0.07 0
0.87 0.07 0
0.88 0.07 0
0.89 0.07 0
0.9 0.07 0
0.91 0.07 0
0.92 0.07 0
0.93 0.07 0
0.94 0.07 0
0.95 0.07 0
0.96 0.07 1
0.97 0.07 1
0.98 0.07 1
0.99 0.07 1
1 0.07 1
0 0.08 1
0.01 0.08 1
0.02 0.08 1
0.03 0.08 1
0.04 0.08 1
0.05 0.08 1
0.06 0.08 1
0.07 0.08 1
0.08 0.08 1
0.09 0.08 1
0.1 0.08 1
0.11 0.08 1
0.12 0.08 1
0.13 0.08 1
0.14 0.08 1
0.15 0.08 0
0.16 0.08 0
0.17 0.08 0
0.18 0.08 0
0.19 0.08 0
0.2 0.08 0
0.21 0.08 0
0.22 0.08 0
0.23 0.08 0
0.24 0.08 1
0.25 0.08 1
0.26 0.08 1
0.27 0.08 1
0.28 0.08 1
0.29 0.08 0
0.3 0.08 0
0.31 0.08 0
0.32 0.08 0
0.33 0.08 0
0.34 0.08 0
0.35 0.08 0
0.36 0.08 0
0.37 0.08 0
0.38 0.08 0
0.39 0.08 0
0.4 0.08 0
0.41 0.08 0
0.42 0.08 0
0.43 0.08 0
0.44 0.08 0
0.45 0.08 0
0.46 0.08 0
0.47 0.08 1
0.48 0.08 1
0.49 0.08 1
0.5 0.08 1
0.51 0.08 1
0.52 0.08 1
0.53 0.08 1
0.54 0.08 1
0.55 0.08 1
0.56 0.08 1
0.57 0.08 1
0.58 0.08 1
0.59 0.08 1
0.6 0.08 0
0.61 0.08 0
0.62 0.08 0
0.63 0.08 0
0.64 0.08 0
0.65 0.08 0
0.66 0.08 0
0.67 0.08 0
0.68 0.08 0
0.69 0.08 0
0.7 0.08 0
0.71 0.08 0
0.72 0.08 0
0.73 0.08 0
0.74 0.08 0
0.75 0.08 0
0.76 0.08 0
0.77 0.08 0
0.78 0.08 0
0.79 0.08 0
0.8 0.08 0
0.81 0.08 0
0.82 0.08 0
0.83 0.08 0
0.84 0.08 0
0.85 0.08 0
0.86 0.08 0
0.87 0.08 0
0.88 0.08 0
0.89 0.08 0
0.9 0.08 0
0.91 0.08 0
0.92 0.08 0
0.93 0.08 1
0.94 0.08 1
0.95 0.08 1
0.96 0.08 1
0.97 0.08 1
0.98 0.08 1
0.99 0.08 1
1 0.08 1
0 0.09 1
0.01 0.09 1
0.02 0.09 1
0.03 0.09 1
0.04 0.09 1
0.05 0.09 1
0.06 0.09 1
0.07 0.09 1
0.08 0.09 1
0.09 0.09 1
0.1 0.09 1
0.11 0.09 1
0.12 0.09 1
0.13 0.09 1
0.14 0.09 1
0.15 0.09 1
0.16 0.09 0
0.17 0.09 0
0.18 0.09 0
0.19 0.09 0
0.2 0.09 0
0.21 0.09 0
0.22 0.09 0
0.23 0.09 0
0.24 0.09 0
0.25 0.09 0
0.26 0.09 0
0.27 0.09 0
0.28 0.09 0
0.29 0.09 0
0.3 0.09 0
0.31 0.09 0
0.32 0.09 0
0.33 0.09 0
0.34 0.09 0
0.35 0.09 0
0.36 0.09 0
0.37 0.09 0
0.38 0.09 0
0.39 0.09 0
0.4 0.09 0
0.41 0.09 0
0.42 0.09 0
0.43 0.09 0
0.44 0.09 0
0.45 0.09 0
0.46 0.09 0
0.47 0.09 0
0.48 0.09 0
0.49 0.09 1
0.5 0.09 1
0.51 0.09 1
0.52 0.09 1
0.53 0.09 1
0.54 0.09 1
0.55 0.09 1
0.56 0.09 1
0.57 0.09 1
0.58 0.09 1
0.59 0.09 1
0.6 0.09 1
0.61 0.09 1
0.62 0.09 0
0.63 0.09 0
0.64 0.09 0
0.65 0.09 0
0.66 0.09 0
0.67 0.09 0
0.68 0.09 0
0.69 0.09 0
0.7 0.09 0
0.71 0.09 1
0.72 0.09 1
0.73 0.09 0
0.74 0.09 0
0.75 0.09 0
0.76 0.09 0
0.77 0.09 0
0.78 0.09 0
0.79 0.09 0
0.8 0.09 0
0.81 0.09 0
0.82 0.09 0
0.83 0.09 0
0.84 0.09 0
0.85 0.09 0
0.86 0.09 0
0.87 0.09 0
0.88 0.09 0
0.89 0.09 0
0.9 0.09 0
0.91 0.09 1
0.92 0.09 1
0.93 0.09 1
0.94 0.09 1
0.95 0.09 1
0.96 0.09 1
0.97 0.09 1
0.98 0.09 1
0.99 0.09 1
1 0.09 1
0 0.1 1
0.01 0.1 1
0.02 0.1 1
0.03 0.1 1
0.04 0.1 1
0.05 0.1 1
0.06 0.1 1
0.07 0.1 1
0.08 0.1 1
0.09 0.1 1
0.1 0.1 1
0.11 0.1 1
0.12 0.1 1
0.13 0.1 1
0.14 0.1 1
0.15 0.1 1
0.16 0.1 1
0.17 0.1 0
0.18 0.1 0
0.19 0.1 0
0.2 0.1 0
0.21 0.1 0
0.22 0.1 0
0.23 0.1 0
0.24 0.1 0
0.25 0.1 0
0.26 0.1 0
0.27 0.1 0
0.28 0.1 0
0.29 0.1 0
0.3 0.1 0
0.31 0.1 0
0.32 0.1 0
0.33 0.1 0
0.34 0.1 0
0.35 0.1 0
0.36 0.1 0
0.37 0.1 0
0.38 0.1 0
0.39 0.1 0
0.4 0.1 0
0.41 0.1 0
0.42 0.1 0
0.43 0.1 0
0.44 0.1 0
0.45 0.1 0
0.46 0.1 0
0.47 0.1 0
0.48 0.1 0
0.49 0.1 0
0.5 0.1 0
0.51 0.1 1
0.52 0.1 1
0.53 0.1 1
0.54 0.1 1
0.55 0.1 1
0.56 0.1 1
0.57 0.1 1
0.58 0.1 1
0.59 0.1 1
0.6 0.1 1
0.61 0.1 1
0.62 0.1 1
0.63 0.1 1
0.64 0.1 1
0.65 0.1 1
0.66 0.1 1
0.67 0.1 1
0.68 0.1 1
0.69 0.1 1
0.7 0.1 1
0.71 0.1 1
0.72 0.1 1
0.73 0.1 1
0.74 0.1 1
0.75 0.1 1
0.76 0.1 0
0.77 0.1 0
0.78 0.1 0
0.79 0.1 0
0.8 0.1 0
0.81 0.1 0
0.82 0.1 0
0.83 0.1 0
0.84 0.1 0
0.85 0.1 0
0.86 0.1 0
0.87 0.1 0
0.88 0.1 0
0.89 0.1 0
0.9 0.1 1
0.91 0.1 1
0.92 0.1 1
0.93 0.1 1
0.94 0.1 1
0.95 0.1 1
0.96 0.1 1
0.97 0.1 1
0.98 0.1 1
0.99 0.1 1
1 0.1 1
0 0.11 1
0.01 0.11 1
0.02 0.11 1
0.03 0.11 1
0.04 0.11 1
0.05 0.11 1
0.06 0.11 1
0.07 0.11 1
0.08 0.11 1
0.09 0.11 1
0.1 0.11 1
0.11 0.11 1
0.12 0.11 1
0.13 0.11 1
0.14 0.11 1
0.15 0.11 1
0.16 0.11 1
0.17 0.11 0
0.18 0.11 0
0.19 0.11 0
0.2 0.11 0
0.21 0.11 0
0.22 0.11 0
0.23 0.11 0
0.24 0.11 0
0.25 0.11 0
0.26 0.11 0
0.27 0.11 0
0.28 0.11 0
0.29 0.11 0
0.3 0.11 0
0.31 0.11 0
0.32 0.11 0
0.33 0.11 0
0.34 0.11 0
0.35 0.11 0
0.36 0.11 0
0.37 0.11 0
0.38 0.11 0
0.39 0.11 0
0.4 0.11 0
0.41 0.11 0
0.42 0.11 0
0.43 0.11 0
0.44 0.11 0
0.45 0.11 0
0.46 0.11 0
0.47 0.11 0
0.48 0.11 0
0.49 0.11 0
0.5 0.11 0
0.51 0.11 0
0.52 0.11 0
0.53 0.11 0
0.54 0.11 1
0.55 0.11 1
0.56 0.11 1
0.57 0.11 1
0.58 0.11 1
0.59 0.11 1
0.6 0.11 1
0.61 0.11 1
0.62 0.11 1
0.63 0.11 1
0.64 0.11 1
0.65 0.11 1
0.66 0.11 1
0.67 0.11 1
0.68 0.11 1
0.69 0.11 1
0.7 0.11 1
0.71 0.11 1
0.72 0.11 1
0.73 0.11 1
0.74 0.11 1
0.75 0.11 1
0.76 0.11 1
0.77 0.11 0
0.78 0.11 0
0.79 0.11 0
0.8 0.11 0
0.81 0.11 0
0.82 0.11 0
0.83 0.11 0
0.84 0.11 0
0.85 0.11 0
0.86 0.11 0
0.87 0.11 0
0.88 0.11 1
0.89 0.11 1
0.9 0.11 1
0.91 0.11 1
0.92 0.11 1
0.93 0.11 1
0.94 0.11 1
0.95 0.11 1
0.96 0.11 1
0.97 0.11 1
0.98 0.11 1
0.99 0.11 1
1 0.11 1
0 0.12 1
0.01 0.12 1
0.02 0.12 1
0.03 0.12 1
0.04 0.12 1
0.05 0.12 1
0.06 0.12 1
0.07 0.12 1
0.08 0.12 1
0.09 0.12 1
0.1 0.12 1
0.11 0.12 1
0.12 0.12 1
0.13 0.12 1
0.14 0.12 1
0.15 0.12 1
0.16 0.12 1
0.17 0.12 0
0.18 0.12 0
0.19 0.12 0
0.2 0.12 0
0.21 0.12 0
0.22 0.12 0
0.23 0.12 0
0.24 0.12 0
0.25 0.12 0
0.26 0.12 0
0.27 0.12 0
0.28 0.12 0
0.29 0.12 0
0.3 0.12 0
0.31 0.12 0
0.32 0.12 0
0.33 0.12 0
0.34 0.12 0
0.35 0.12 0
0.36 0.12 0
0.37 0.12 0
0.38 0.12 0
0.39 0.12 0
0.4 0.12 0
0.41 0.12 0
0.42 0.12 0
0.43 0.12 0
0.44 0.12 0
0.45 0.12 0
0.46 0.12 0
0.47 0.12 0
0.48 0.12 0
0.49 0.12 0
0.5 0.12 0
0.51 0.12 0
0.52 0.12 0
0.53 0.12 0
0.54 0.12 0
0.55 0.12 0
0.56 0.12 1
0.57 0.12 1
0.58 0.12 1
0.59 0.12 1
0.6 0.12 1
0.61 0.12 1
0.62 0.12 1
0.63 0.12 1
0.64 0.12 1
0.65 0.12 1
0.66 0.12 1
0.67 0.12 1
0.68 0.12 1
0.69 0.12 1
0.7 0.12 1
0.71 0.12 1
0.72 0.12 1
0.73 0.12 1
0.74 0.12 1
0.75 0.12 1
0.76 0.12 1
0.77 0.12 0
0.78 0.12 0
0.79 0.12 0
0.8 0.12 0
0.81 0.12 0
0.82 0.12 0
0.83 0.12 0
0.84 0.12 0
0.85 0.12 0
0.86 0.12 0
0.87 0.12 1
0.88 0.12 1
0.89 0.12 1
0.9 0.12 1
0.91 0.12 1
0.92 0.12 1
0.93 0.12 1
0.94 0.12 1
0.95 0.12 1
0.96 0.12 1
0.97 0.12 1
0.98 0.12 1
0.99 0.12 1
1 0.12 1
0 0.13 1
0.01 0.13 1
0.02 0.13 1
0.03 0.13 1
0.04 0.13 1
0.05 0.13 1
0.06 0.13 1
0.07 0.13 1
0.08 0.13 1
0.09 0.13 1
0.1 0.13 1
0.11 0.13 1
0.12 0.13 1
0.13 0.13 1
0.14 0.13 1
0.15 0.13 1
0.16 0.13 1
0.17 0.13 0
0.18 0.13 0
0.19 0.13 0
0.2 0.13 0
0.21 0.13 0
0.22 0.13 0
0.23 0.13 0
0.24 0.13 0
0.25 0.13 0
0.26 0.13 0
0.27 0.13 0
0.28 0.13 0
0.29 0.13 0
0.3 0.13 0
0.31 0.13 0
0.32 0.13 1
0.33 0.13 1
0.34 0.13 1
0.35 0.13 1
0.36 0.13 1
0.37 0.13 1
0.38 0.13 1
0.39 0.13 1
0.4 0.13 1
0.41 0.13 1
0.42 0.13 0
0.43 0.13 0
0.44 0.13 0
0.45 0.13 0
0.46 0.13 0
0.47 0.13 0
0.48 0.13 0
0.49 0.13 0
0.5 0.13 0
0.51 0.13 0
0.52 0.13 0
0.53 0.13 0
0.54 0.13 0
0.55 0.13 0
0.56 0.13 0
0.57 0.13 0
0.58 0.13 1
0.59 0.13 1
0.6 0.13 1
0.61 0.13 1
0.62 0.13 1
0.63 0.13 1
0.64 0.13 1
0.65 0.13 1
0.66 0.13 1
0.67 0.13 1
0.68 0.13 1
0.69 0.13 1
0.7 0.13 1
0.71 0.13 1
0.72 0.13 1
0.73 0.13 1
0.74 0.13 1
0.75 0.13 1
0.76 0.13 1
0.77 0.13 0
0.78 0.13 0
0.79 0.13 0
0.8 0.13 0
0.81 0.13 0
0.82 0.13 0
0.83 0.13 0
0.84 0.13 0
0.85 0.13 0
0.86 0.13 0
0.87 0.13 1
0.88 0.13 1
0.89 0.13 1
0.9 0.13 1
0.91 0.13 1
0.92 0.13 1
0.93 0.13 1
0.94 0.13 1
0.95 0.13 1
0.96 0.13 1
0.97 0.13 1
0.98 0.13 1
0.99 0.13 1
1 0.13 1
0 0.14 1
0.01 0.14 1
0.02 0.14 1
0.03 0.14 1
0.04 0.14 1
0.05 0.14 1
0.06 0.14 1
0.07 0.14 1
0.08 0.14 1
0.09 0.14 1
0.1 0.14 1
0.11 0.14 1
0.12 0.14 1
0.13 0.14 1
0.14 0.14 1
0.15 0.14 1
0.16 0.14 1
0.17 0.14 0
0.18 0.14 0
0.19 0.14 0
0.2 0.14 0
0.21 0.14 0
0.22 0.14 0
0.23 0.14 0
0.24 0.14 0
0.25 0.14 0
0.26 0.14 0
0.27 0.14 0
0.28 0.14 0
0.29 0.14 0
0.3 0.14 1
0.31 0.14 1
0.32 0.14 1
0.33 0.14 1
0.34 0.14 1
0.35 0.14 1
0.36 0.14 1
0.37 0.14 1
0.38 0.14 1
0.39 0.14 1
0.4 0.14 1
0.41 0.14 1
0.42 0.14 1
0.43 0.14 1
0.44 0.14 0
0.45 0.14 0
0.46 0.14 0
0.47 0.14 0
0.48 0.14 0
0.49 0.14 0
0.5 0.14 0
0.51 0.14 0
0.52 0.14 0
0.53 0.14 0
0.54 0.14 0
0.55 0.14 0
0.56 0.14 0
0.57 0.14 0
0.58 0.14 1
0.59 0.14 1
0.6 0.14 1
0.61 0.14 1
0.62 0.14 1
0.63 0.14 1
0.64 0.14 1
0.65 0.14 1
0.66 0.14 1
0.67 0.14 1
0.68 0.14 1
0.69 0.14 1
0.7 0.14 1
0.71 0.14 1
0.72 0.14 1
0.73 0.14 1
0.74 0.14 1
0.75 0.14 1
0.76 0.14 1
0.77 0.14 0
0.78 0.14 0
0.79 0.14 0
0.8 0.14 0
0.81 0.14 0
0.82 0.14 0
0.83 0.14 0
0.84 0.14 0
0.85 0.14 0
0.86 0.14 1
0.87 0.14 1
0.88 0.14 1
0.89 0.14 1
0.9 0.14 1
0.91 0.14 1
0.92 0.14 1
0.93 0.14 1
0.94 0.14 1
0.95 0.14 1
0.96 0.14 1
0.97 0.14 1
0.98 0.14 1
0.99 0.14 1
1 0.14 1
0 0.15 0
0.01 0.15 1
0.02 0.15 1
0.03 0.15 1
0.04 0.15 1
0.05 0.15 1
0.06 0.15 1
0.07 0.15 1
0.08 0.15 1
0.09 0.15 1
0.1 0.15 1
0.11 0.15 1
0.12 0.15 1
0.13 0.15 1
0.14 0.15 1
0.15 0.15 1
0.16 0.15 1
0.17 0.15 0
0.18 0.15 0
0.19 0.15 0
0.2 0.15 0
0.21 0.15 0
0.22 0.15 0
0.23 0.15 0
0.24 0.15 0
0.25 0.15 0
0.26 0.15 0
0.27 0.15 0
0.28 0.15 1
0.29 0.15 1
0.3 0.15 1
0.31 0.15 1
0.32 0.15 1
0.33 0.15 1
0.34 0.15 1
0.35 0.15 1
0.36 0.15 1
0.37 0.15 1
0.38 0.15 1
0.39 0.15 1
0.4 0.15 1
0.41 0.15 1
0.42 0.15 1
0.43 0.15 1
0.44 0.15 1
0.45 0.15 1
0.46 0.15 0
0.47 0.15 0
0.48 0.15 0
0.49 0.15 0
0.5 0.15 0
0.51 0.15 0
0.52 0.15 0
0.53 0.15 0
0.54 0.15 0
0.55 0.15 0
0.56 0.15 0
0.57 0.15 0
0.58 0.15 0
0.59 0.15 1
0.6 0.15 1
0.61 0.15 1
0.62 0.15 1
0.63 0.15 1
0.64 0.15 1
0.65 0.15 1
0.66 0.15 1
0.67 0.15 1
0.68 0.15 1
0.69 0.15 1
0.7 0.15 1
0.71 0.15 1
0.72 0.15 1
0.73 0.15 1
0.74 0.15 1
0.75 0.15 1
0.76 0.15 1
0.77 0.15 0
0.78 0.15 0
0.79 0.15 0
0.8 0.15 0
0.81 0.15 0
0.82 0.15 0
0.83 0.15 0
0.84 0.15 0
0.85 0.15 1
0.86 0.15 1
0.87 0.15 1
0.88 0.15 1
0.89 0.15 1
0.9 0.15 1
0.91 0.15 1
0.92 0.15 1
0.93 0.15 1
0.94 0.15 1
0.95 0.15 1
0.96 0.15 1
0.97 0.15 0
0.98 0.15 0
0.99 0.15 0
1 0.15 0
0 0.16 0
0.01 0.16 0
0.02 0.16 0
0.03 0.16 0
0.04 0.16 0
0.05 0.16 1
0.06 0.16 1
0.07 0.16 1
0.08 0.16 1
0.09 0.16 1
0.1 0.16 1
0.11 0.16 1
0.12 0.16 1
0.13 0.16 1
0.14 0.16 1
0.15 0.16 1
0.16 0.16 0
0.17 0.16 0
0.18 0.16 0
0.19 0.16 0
0.2 0.16 0
0.21 0.16 0
0.22 0.16 0
0.23 0.16 0
0.24 0.16 0
0.25 0.16 0
0.26 0.16 0
0.27 0.16 1
0.28 0.16 1
0.29 0.16 1
0.3 0.16 1
0.31 0.16 1
0.32 0.16 1
0.33 0.16 1
0.34 0.16 1
0.35 0.16 1
0.36 0.16 1
0.37 0.16 1
0.38 0.16 1
0.39 0.16 1
0.4 0.16 1
0.41 0.16 1
0.42 0.16 1
0.43 0.16 1
0.44 0.16 1
0.45 0.16 1
0.46 0.16 1
0.47 0.16 0
0.48 0.16 0
0.49 0.16 0
0.5 0.16 0
0.51 0.16 0
0.52 0.16 0
0.53 0.16 0
0.54 0.16 0
0.55 0.16 0
0.56 0.16 0
0.57 0.16 0
0.58 0.16 0
0.59 0.16 1
0.6 0.16 1
0.61 0.16 1
0.62 0.16 1
0.63 0.16 1
0.64 0.16 1
0.65 0.16 1
0.66 0.16 1
0.67 0.16 1
0.68 0.16 1
0.69 0.16 1
0.7 0.16 1
0.71 0.16 1
0.72 0.16 1
0.73 0.16 1
0.74 0.16 1
0.75 0.16 1
0.76 0.16 0
0.77 0.16 0
0.78 0.16 0
0.79 0.16 0
0.8 0.16 0
0.81 0.16 0
0.82 0.16 0
0.83 0.16 0
0.84 0.16 0
0.85 0.16 1
0.86 0.16 1
0.87 0.16 1
0.88 0.16 1
0.89 0.16 1
0.9 0.16 1
0.91 0.16 1
0.92 0.16 1
0.93 0.16 0
0.94 0.16 0
0.95 0.16 0
0.96 0.16 0
0.97 0.16 0
0.98 0.16 0
0.99 0.16 0
1 0.16 0
0 0.17 0
0.01 0.17 0
0.02 0.17 0
0.03 0.17 0
0.04 0.17 0
0.05 0.17 0
0.06 0.17 0
0.07 0.17 0
0.08 0.17 1
0.09 0.17 1
0.1 0.17 1
0.11 0.17 1
0.12 0.17 1
0.13 0.17 1
0.14 0.17 0
0.15 0.17 0
0.16 0.17 0
0.17 0.17 0
0.18 0.17 0
0.19 0.17 0
0.2 0.17 0
0.21 0.17 0
0.22 0.17 0
0.23 0.17 0
0.24 0.17 0
0.25 0.17 0
0.26 0.17 1
0.27 0.17 1
0.28 0.17 1
0.29 0.17 1
0.3 0.17 1
0.31 0.17 1
0.32 0.17 1
0.33 0.17 1
0.34 0.17 1
0.35 0.17 1
0.36 0.17 1
0.37 0.17 1
0.38 0.17 1
0.39 0.17 1
0.4 0.17 1
0.41 0.17 1
0.42 0.17 1
0.43 0.17 1
0.44 0.17 1
0.45 0.17 1
0.46 0.17 1
0.47 0.17 1
0.48 0.17 0
0.49 0.17 0
0.5 0.17 0
0.51 0.17 0
0.52 0.17 0
0.53 0.17 0
0.54 0.17 0
0.55 0.17 0
0.56 0.17 0
0.57 0.17 0
0.58 0.17 0
0.59 0.17 1
0.6 0.17 1
0.61 0.17 1
0.62 0.17 1
0.63 0.17 1
0.64 0.17 1
0.65 0.17 1
0.66 0.17 1
0.67 0.17 1
0.68 0.17 1
0.69 0.17 1
0.7 0.17 1
0.71 0.17 1
0.72 0.17 1
0.73 0.17 1
0.74 0.17 1
0.75 0.17 0
0.76 0.17 0
0.77 0.17 0
0.78 0.17 0
0.79 0.17 0
0.8 0.17 0
0.81 0.17 0
0.82 0.17 0
0.83 0.17 0
0.84 0.17 1
0.85 0.17 1
0.86 0.17 1
0.87 0.17 1
0.88 0.17 1
0.89 0.17 1
0.9 0.17 1
0.91 0.17 1
0.92 0.17 0
0.93 0.17 0
0.94 0.17 0
0.95 0.17 0
0.96 0.17 0
0.97 0.17 0
0.98 0.17 0
0.99 0.17 0
1 0.17 0
0 0.18 0
0.01 0.18 0
0.02 0.18 0
0.03 0.18 0
0.04 0.18 0
0.05 0.18 0
0.06 0.18 0
0.07 0.18 0
0.08 0.18 0
0.09 0.18 0
0.1 0.18 0
0.11 0.18 0
0.12 0.18 0
0.13 0.18 0
0.14 0.18 0
0.15 0.18 0
0.16 0.18 0
0.17 0.18 0
0.18 0.18 0
0.19 0.18 0
0.2 0.18 0
0.21 0.18 0
0.22 0.18 0
0.23 0.18 0
0.24 0.18 0
0.25 0.18 1
0.26 0.18 1
0.27 0.18 1
0.28 0.18 1
0.29 0.18 1
0.3 0.18 1
0.31 0.18 1
0.32 0.18 1
0.33 0.18 1
0.34 0.18 1
0.35 0.18 1
0.36 0.18 1
0.37 0.18 1
0.38 0.18 1
0.39 0.18 1
0.4 0.18 1
0.41 0.18 1
0.42 0.18 1
0.43 0.18 1
0.44 0.18 1
0.45 0.18 1
0.46 0.18 1
0.47 0.18 1
0.48 0.18 1
0.49 0.18 0
0.5 0.18 0
0.51 0.18 0
0.52 0.18 0
0.53 0.18 0
0.54 0.18 0
0.55 0.18 0
0.56 0.18 0
0.57 0.18 0
0.58 0.18 0
0.59 0.18 1
0.6 0.18 1
0.61 0.18 1
0.62 0.18 1
0.63 0.18 1
0.64 0.18 1
0.65 0.18 1
0.66 0.18 1
0.67 0.18 1
0.68 0.18 1
0.69 0.18 1
0.7 0.18 1
0.71 0.18 1
0.72 0.18 1
0.73 0.18 1
0.74 0.18 1
0.75 0.18 0
0.76 0.18 0
0.77 0.18 0
0.78 0.18 0
0.79 0.18 0
0.8 0.18 0
0.81 0.18 0
0.82 0.18 0
0.83 0.18 0
0.84 0.18 1
0.85 0.18 1
0.86 0.18 1
0.87 0.18 1
0.88 0.18 1
0.89 0.18 1
0.9 0.18 0
0.91 0.18 0
0.92 0.18 0
0.93 0.18 0
0.94 0.18 0
0.95 0.18 0
0.96 0.18 0
0.97 0.18 0
0.98 0.18 0
0.99 0.18 0
1 0.18 0
0 0.19 0
0.01 0.19 0
0.02 0.19 0
0.03 0.19 0
0.04 0.19 0
0.05 0.19 0
0.06 0.19 0
0.07 0.19 0
0.08 0.19 0
0.09 0.19 0
0.1 0.19 0
0.11 0.19 0
0.12 0.19 0
0.13 0.19 0
0.14 0.19 0
0.15 0.19 0
0.16 0.19 0
0.17 0.19 0
0.18 0.19 0
0.19 0.19 0
0.2 0.19 0
0.21 0.19 0
0.22 0.19 0
0.23 0.19 0
0.24 0.19 1
0.25 0.19 1
0.26 0.19 1
0.27 0.19 1
0.28 0.19 1
0.29 0.19 1
0.3 0.19 1
0.31 0.19 1
0.32 0.19 1
0.33 0.19 1
0.34 0.19 1
0.35 0.19 1
0.36 0.19 1
0.37 0.19 1
0.38 0.19 1
0.39 0.19 1
0.4 0.19 1
0.41 0.19 1
0.42 0.19 1
0.43 0.19 1
0.44 0.19 1
0.45 0.19 1
0.46 0.19 1
0.47 0.19 1
0.48 0.19 1
0.49 0.19 0
0.5 0.19 0
0.51 0.19 0
0.52 0.19 0
0.53 0.19 0
0.54 0.19 0
0.55 0.19 0
0.56 0.19 0
0.57 0.19 0
0.58 0.19 0
0.59 0.19 1
0.6 0.19 1
0.61 0.19 1
0.62 0.19 1
0.63 0.19 1
0.64 0.19 1
0.65 0.19 1
0.66 0.19 1
0.67 0.19 1
0.68 0.19 1
0.69 0.19 1
0.7 0.19 1
0.71 0.19 1
0.72 0.19 1
0.73 0.19 1
0.74 0.19 0
0.75 0.19 0
0.76 0.19 0
0.77 0.19 0
0.78 0.19 0
0.79 0.19 0
0.8 0.19 0
0.81 0.19 0
0.82 0.19 0
0.83 0.19 1
0.84 0.19 1
0.85 0.19 1
0.86 0.19 1
0.87 0.19 1
0.88 0.19 1
0.89 0.19 0
0.9 0.19 0
0.91 0.19 0
0.92 0.19 0
0.93 0.19 0
0.94 0.19 0
0.95 0.19 0
0.96 0.19 0
0.97 0.19 0
0.98 0.19 0
0.99 0.19 0
1 0.19 0
0 0.2 0
0.01 0.2 0
0.02 0.2 0
0.03 0.2 0
0.04 0.2 0
0.05 0.2 0
0.06 0.2 0
0.07 0.2 0
0.08 0.2 0
0.09 0.2 0
0.1 0.2 0
0.11 0.2 0
0.12 0.2 0
0.13 0.2 0
0.14 0.2 0
0.15 0.2 0
0.16 0.2 0
0.17 0.2 0
0.18 0.2 0
0.19 0.2 0
0.2 0.2 0
0.21 0.2 0
0.22 0.2 0
0.23 0.2 1
0.24 0.2 1
0.25 0.2 1
0.26 0.2 1
0.27 0.2 1
0.28 0.2 1
0.29 0.2 1
0.3 0.2 1
0.31 0.2 1
0.32 0.2 1
0.33 0.2 1
0.34 0.2 1
0.35 0.2 1
0.36 0.2 1
0.37 0.2 1
0.38 0.2 1
0.39 0.2 1
0.4 0.2 1
0.41 0.2 1
0.42 0.2 1
0.43 0.2 1
0.44 0.2 1
0.45 0.2 1
0.46 0.2 1
0.47 0.2 1
0.48 0.2 1
0.49 0.2 1
0.5 0.2 0
0.51 0.2 0
0.52 0.2 0
0.53 0.2 0
0.54 0.2 0
0.55 0.2 0
0.56 0.2 0
0.57 0.2 0
0.58 0.2 1
0.59 0.2 1
0.6 0.2 1
0.61 0.2 1
0.62 0.2 1
0.63 0.2 1
0.64 0.2 1
0.65 0.2 1
0.66 0.2 1
0.67 0.2 1
0.68 0.2 1
0.69 0.2 1
0.7 0.2 1
0.71 0.2 1
0.72 0.2 0
0.73 0.2 0
0.74 0.2 0
0.75 0.2 0
0.76 0.2 0
0.77 0.2 0
0.78 0.2 0
0.79 0.2 0
0.8 0.2 0
0.81 0.2 0
0.82 0.2 0
0.83 0.2 1
0.84 0.2 1
0.85 0.2 1
0.86 0.2 1
0.87 0.2 1
0.88 0.2 1
0.89 0.2 0
0.9 0.2 0
0.91 0.2 0
0.92 0.2 0
0.93 0.2 0
0.94 0.2 0
0.95 0.2 0
0.96 0.2 0
0.97 0.2 0
0.98 0.2 0
0.99 0.2 0
1 0.2 0
0 0.21 0
0.01 0.21 0
0.02 0.21 0
0.03 0.21 0
0.04 0.21 0
0.05 0.21 0
0.06 0.21 0
0.07 0.21 0
0.08 0.21 0
0.09 0.21 0
0.1 0.21 0
0.11 0.21 0
0.12 0.21 0
0.13 0.21 0
0.14 0.21 0
0.15 0.21 0
0.16 0.21 0
0.17 0.21 0
0.18 0.21 0
0.19 0.21 0
0.2 0.21 0
0.21 0.21 0
0.22 0.21 1
0.23 0.21 1
0.24 0.21 1
0.25 0.21 1
0.26 0.21 1
0.27 0.21 1
0.28 0.21 1
0.29 0.21 1
0.3 0.21 1
0.31 0.21 1
0.32 0.21 1
0.33 0.21 0
0.34 0.21 0
0.35 0.21 0
0.36 0.21 0
0.37 0.21 1
0.38 0.21 1
0.39 0.21 1
0.4 0.21 1
0.41 0.21 1
0.42 0.21 1
0.43 0.21 1
0.44 0.21 1
0.45 0.21 1
0.46 0.21 1
0.47 0.21 1
0.48 0.21 1
0.49 0.21 1
0.5 0.21 0
0.51 0.21 0
0.52 0.21 0
0.53 0.21 0
0.54 0.21 0
0.55 0.21 0
0.56 0.21 0
0.57 0.21 0
0.58 0.21 1
0.59 0.21 1
0.6 0.21 1
0.61 0.21 1
0.62 0.21 1
0.63 0.21 1
0.64 0.21 1
0.65 0.21 1
0.66 0.21 1
0.67 0.21 1
0.68 0.21 1
0.69 0.21 1
0.7 0.21 1
0.71 0.21 0
0.72 0.21 0
0.73 0.21 0
0.74 0.21 0
0.75 0.21 0
0.76 0.21 0
0.77 0.21 0
0.78 0.21 0
0.79 0.21 0
0.8 0.21 0
0.81 0.21 0
0.82 0.21 1
0.83 0.21 1
0.84 0.21 1
0.85 0.21 1
0.86 0.21 1
0.87 0.21 1
0.88 0.21 0
0.89 0.21 0
0.9 0.21 0
0.91 0.21 0
0.92 0.21 0
0.93 0.21 0
0.94 0.21 0
0.95 0.21 0
0.96 0.21 0
0.97 0.21 0
0.98 0.21 0
0.99 0.21 0
1 0.21 0
0 0.22 0
0.01 0.22 0
0.02 0.22 0
0.03 0.22 0
0.04 0.22 0
0.05 0.22 0
0.06 0.22 0
0.07 0.22 0
0.08 0.22 0
0.09 0.22 0
0.1 0.22 0
0.11 0.22 0
0.12 0.22 0
0.13 0.22 0
0.14 0.22 0
0.15 0.22 0
0.16 0.22 0
0.17 0.22 0
0.18 0.22 0
0.19 0.22 0
0.2 0.22 0
0.21 0.22 1
0.22 0.22 1
0.23 0.22 1
0.24 0.22 1
0.25 0.22 1
0.26 0.22 1
0.27 0.22 1
0.28 0.22 1
0.29 0.22 1
0.3 0.22 1
0.31 0.22 0
0.32 0.22 0
0.33 0.22 0
0.34 0.22 0
0.35 0.22 0
0.36 0.22 0
0.37 0.22 0
0.38 0.22 1
0.39 0.22 1
0.4 0.22 1
0.41 0.22 1
0.42 0.22 1
0.43 0.22 1
0.44 0.22 1
0.45 0.22 1
0.46 0.22 1
0.47 0.22 1
0.48 0.22 1
0.49 0.22 1
0.5 0.22 0
0.51 0.22 0
0.52 0.22 0
0.53 0.22 0
0.54 0.22 0
0.55 0.22 0
0.56 0.22 0
0.57 0.22 0
0.58 0.22 1
0.59 0.22 1
0.6 0.22 1
0.61 0.22 1
0.62 0.22 1
0.63 0.22 1
0.64 0.22 1
0.65 0.22 1
0.66 0.22 1
0.67 0.22 1
0.68 0.22 1
0.69 0.22 1
0.7 0.22 1
0.71 0.22 0
0.72 0.22 0
0.73 0.22 0
0.74 0.22 0
0.75 0.22 0
0.76 0.22 0
0.77 0.22 0
0.78 0.22 0
0.79 0.22 0
0.8 0.22 0
0.81 0.22 0
0.82 0.22 1
0.83 0.22 1
0.84 0.22 1
0.85 0.22 1
0.86 0.22 1
0.87 0.22 1
0.88 0.22 0
0.89 0.22 0
0.9 0.22 0
0.91 0.22 0
0.92 0.22 0
0.93 0.22 0
0.94 0.22 0
0.95 0.22 0
0.96 0.22 0
0.97 0.22 0
0.98 0.22 0
0.99 0.22 0
1 0.22 0
0 0.23 1
0.01 0.23 1
0.02 0.23 1
0.03 0.23 0
0.04 0.23 0
0.05 0.23 0
0.06 0.23 0
0.07 0.23 0
0.08 0.23 0
0.09 0.23 0
0.1 0.23 0
0.11 0.23 0
0.12 0.23 0
0.13 0.23 0
0.14 0.23 0
0.15 0.23 0
0.16 0.23 0
0.17 0.23 0
0.18 0.23 0
0.19 0.23 0
0.2 0.23 1
0.21 0.23 1
0.22 0.23 1
0.23 0.23 1
0.24 0.23 1
0.25 0.23 1
0.26 0.23 1
0.27 0.23 1
0.28 0.23 1
0.29 0.23 1
0.3 0.23 0
0.31 0.23 0
0.32 0.23 0
0.33 0.23 0
0.34 0.23 0
0.35 0.23 0
0.36 0.23 0
0.37 0.23 0
0.38 0.23 0
0.39 0.23 1
0.4 0.23 1
0.41 0.23 1
0.42 0.23 1
0.43 0.23 1
0.44 0.23 1
0.45 0.23 1
0.46 0.23 1
0.47 0.23 1
0.48 0.23 1
0.49 0.23 1
0.5 0.23 0
0.51 0.23 0
0.52 0.23 0
0.53 0.23 0
0.54 0.23 0
0.55 0.23 0
0.56 0.23 0
0.57 0.23 1
0.58 0.23 1
0.59 0.23 1
0.6 0.23 1
0.61 0.23 1
0.62 0.23 1
0.63 0.23 1
0.64 0.23 1
0.65 0.23 1
0.66 0.23 1
0.67 0.23 1
0.68 0.23 1
0.69 0.23 1
0.7 0.23 0
0.71 0.23 0
0.72 0.23 0
0.73 0.23 0
0.74 0.23 0
0.75 0.23 0
0.76 0.23 0
0.77 0.23 0
0.78 0.23 0
0.79 0.23 0
0.8 0.23 0
0.81 0.23 1
0.82 0.23 1
0.83 0.23 1
0.84 0.23 1
0.85 0.23 1
0.86 0.23 1
0.87 0.23 1
0.88 0.23 0
0.89 0.23 0
0.9 0.23 0
0.91 0.23 0
0.92 0.23 0
0.93 0.23 0
0.94 0.23 0
0.95 0.23 0
0.96 0.23 0
0.97 0.23 0
0.98 0.23 0
0.99 0.23 0
1 0.23 1
0 0.24 1
0.01 0.24 1
0.02 0.24 1
0.03 0.24 1
0.04 0.24 1
0.05 0.24 1
0.06 0.24 0
0.07 0.24 0
0.08 0.24 0
0.09 0.24 0
0.1 0.24 0
0.11 0.24 0
0.12 0.24 0
0.13 0.24 0
0.14 0.24 0
0.15 0.24 0
0.16 0.24 0
0.17 0.24 0
0.18 0.24 0
0.19 0.24 1
0.2 0.24 1
0.21 0.24 1
0.22 0.24 1
0.23 0.24 1
0.24 0.24 1
0.25 0.24 1
0.26 0.24 1
0.27 0.24 1
0.28 0.24 1
0.29 0.24 1
0.3 0.24 0
0.31 0.24 0
0.32 0.24 0
0.33 0.24 0
0.34 0.24 0
0.35 0.24 0
0.36 0.24 0
0.37 0.24 0
0.38 0.24 0
0.39 0.24 1
0.4 0.24 1
0.41 0.24 1
0.42 0.24 1
0.43 0.24 1
0.44 0.24 1
0.45 0.24 1
0.46 0.24 1
0.47 0.24 1
0.48 0.24 1
0.49 0.24 1
0.5 0.24 0
0.51 0.24 0
0.52 0.24 0
0.53 0.24 0
0.54 0.24 0
0.55 0.24 0
0.56 0.24 0
0.57 0.24 1
0.58 0.24 1
0.59 0.24 1
0.6 0.24 1
0.61 0.24 1
0.62 0.24 1
0.63 0.24 1
0.64 0.24 1
0.65 0.24 1
0.66 0.24 1
0.67 0.24 1
0.68 0.24 1
0.69 0.24 0
0.7 0.24 0
0.71 0.24 0
0.72 0.24 0
0.73 0.24 0
0.74 0.24 0
0.75 0.24 0
0.76 0.24 0
0.77 0.24 0
0.78 0.24 0
0.79 0.24 0
0.8 0.24 1
0.81 0.24 1
0.82 0.24 1
0.83 0.24 1
0.84 0.24 1
0.85 0.24 1
0.86 0.24 1
0.87 0.24 1
0.88 0.24 1
0.89 0.24 0
0.9 0.24 0
0.91 0.24 0
0.92 0.24 0
0.93 0.24 0
0.94 0.24 0
0.95 0.24 0
0.96 0.24 0
0.97 0.24 1
0.98 0.24 1
0.99 0.24 1
1 0.24 1
0 0.25 1
0.01 0.25 1
0.02 0.25 1
0.03 0.25 1
0.04 0.25 1
0.05 0.25 1
0.06 0.25 1
0.07 0.25 1
0.08 0.25 0
0.09 0.25 0
0.1 0.25 0
0.11 0.25 0
0.12 0.25 0
0.13 0.25 0
0.14 0.25 0
0.15 0.25 0
0.16 0.25 0
0.17 0.25 0
0.18 0.25 1
0.19 0.25 1
0.2 0.25 1
0.21 0.25 1
0.22 0.25 1
0.23 0.25 1
0.24 0.25 1
0.25 0.25 1
0.26 0.25 1
0.27 0.25 1
0.28 0.25 1
0.29 0.25 0
0.3 0.25 0
0.31 0.25 0
0.32 0.25 0
0.33 0.25 0
0.34 0.25 0
0.35 0.25 0
0.36 0.25 0
0.37 0.25 0
0.38 0.25 0