TITLE ="t=0.000000" 
VARIABLES = "x"  "y"          "phase"
ZONE N=16, E=9, F=FEPOINT, ET=QUADRILATERAL
0.000000000000000e+00 0.000000000000000e+00  1
1.000000000000000e+00 0.000000000000000e+00  1
2.000000000000000e+00 0.000000000000000e+00  0 
3.000000000000000e+00 0.000000000000000e+00  0 
0.000000000000000e+00 1.000000000000000e+00  0 
1.000000000000000e+00 1.000000000000000e+00  1 
2.000000000000000e+00 1.000000000000000e+00  1 
3.000000000000000e+00 1.000000000000000e+00  0
0.000000000000000e+00 2.000000000000000e+00  0
1.000000000000000e+00 2.000000000000000e+00  1
2.000000000000000e+00 2.000000000000000e+00  1
3.000000000000000e+00 2.000000000000000e+00  0
0.000000000000000e+00 3.000000000000000e+00  0
1.000000000000000e+00 3.000000000000000e+00  0
2.000000000000000e+00 3.000000000000000e+00  1
3.000000000000000e+00 3.000000000000000e+00  0
1	2	6	5
2	3	7	6
3	4	8	7
5	6	10	9
6	7	11	10
7	8	12	11
9	10	14	13
10	11	15	14
11	12	16	15
